Gromacs Runs On Most of All Computer Systems
45519
    1DT     BB2    1  10.065  10.593  10.749
    1DT     BB3    2  10.155  10.483  10.879
    1DT     SC1    3  10.195  10.293  10.689
    1DT     SC2    4  10.165  10.103  10.789
    1DT     SC3    5  10.345  10.143  10.529
    2DG     BB1    6  10.005  10.543  11.189
    2DG     BB2    7  10.155  10.303  11.459
    2DG     BB3    8  10.225  10.153  11.359
    2DG     SC1    9   9.965  10.033  11.239
    2DG     SC2   10   9.735   9.933  11.379
    2DG     SC3   11   9.775   9.843  11.109
    2DG     SC4   12   9.965  10.053  11.079
    3DC     BB1   13  10.525  10.113  11.439
    3DC     BB2   14  10.625   9.763  11.359
    3DC     BB3   15  10.535   9.683  11.199
    3DC     SC1   16  10.305   9.653  11.269
    3DC     SC2   17  10.235   9.463  11.169
    3DC     SC3   18  10.035   9.643  11.239
    4DA     BB1   19  10.825   9.653  10.999
    4DA     BB2   20  10.725   9.453  10.749
    4DA     BB3   21  10.755   9.563  10.589
    4DA     SC1   22  10.495   9.683  10.599
    4DA     SC2   23  10.305   9.603  10.479
    4DA     SC3   24  10.205   9.833  10.509
    4DA     SC4   25  10.425   9.803  10.689
    5DT     BB1   26  10.985   9.363  10.369
    5DT     BB2   27  10.665   9.313  10.199
    5DT     BB3   28  10.655   9.413  10.039
    5DT     SC1   29  10.555   9.633  10.149
    5DT     SC2   30  10.425   9.713   9.999
    5DT     SC3   31  10.455   9.823  10.289
    6DA     BB1   32  10.655   9.163   9.799
    6DA     BB2   33  10.345   9.273   9.679
    6DA     BB3   34  10.365   9.383   9.519
    6DA     SC1   35  10.455   9.633   9.619
    6DA     SC2   36  10.365   9.843   9.589
    6DA     SC3   37  10.605   9.933   9.629
    6DA     SC4   38  10.605   9.663   9.699
    7DC     BB1   39  10.155   9.273   9.319
    7DC     BB2   40  10.075   9.613   9.289
    7DC     BB3   41  10.135   9.723   9.129
    7DC     SC1   42  10.375   9.723   9.229
    7DC     SC2   43  10.425   9.933   9.249
    7DC     SC3   44  10.625   9.753   9.289
    8DG     BB1   45   9.855   9.603   9.009
    8DG     BB2   46   9.645   9.893   9.059
    8DG     BB3   47   9.485   9.813   8.989
    8DG     SC1   48   9.625   9.663   8.789
    8DG     SC2   49   9.645   9.703   8.499
    8DG     SC3   50   9.805   9.474   8.579
    8DG     SC4   51   9.735   9.553   8.839
    9DG     BB1   52   9.285   9.783   9.279
    9DG     BB2   53   9.025   9.564   9.159
    9DG     BB3   54   9.075   9.384   9.229
    9DG     SC1   55   9.155   9.244   8.989
    9DG     SC2   56   8.995   9.214   8.749
    9DG     SC3   57   9.255   9.084   8.719
    9DG     SC4   58   9.295   9.164   8.989
   10DT     BB1   59   8.995   9.413   9.519
   10DT     BB2   60   9.035   9.054   9.519
   10DT     BB3   61   9.175   8.983   9.399
   10DT     SC1   62   9.005   8.944   9.209
   10DT     SC2   63   8.935   8.744   9.169
   10DT     SC3   64   8.915   8.984   8.959
   11DC     BB1   65   9.375   8.964   9.649
   11DC     BB2   66   9.075   9.014   9.809
   11DC     BB3   67   8.925   8.884   9.769
   11DC     SC1   68   8.785   9.064   9.639
   11DC     SC2   69   8.605   9.074   9.759
   11DC     SC3   70   8.575   9.154   9.499
   12DC     BB1   71   8.915   8.694  10.059
   12DC     BB2   72   8.555   8.624  10.109
   12DC     BB3   73   8.405   8.704   9.999
   12DC     SC1   74   8.455   8.974  10.089
   12DC     SC2   75   8.255   9.064  10.049
   12DC     SC3   76   8.485   9.244  10.049
   13DT     BB1   77   8.265   8.424   9.899
   13DT     BB2   78   7.975   8.424  10.099
   13DT     BB3   79   7.865   8.584  10.089
   13DT     SC1   80   8.045   8.724  10.269
   13DT     SC2   81   7.935   8.774  10.449
   13DT     SC3   82   8.215   8.904  10.359
   14DC     BB1   83   7.615   8.444   9.899
   14DC     BB2   84   7.335   8.624  10.039
   14DC     BB3   85   7.335   8.804   9.929
   14DC     SC1   86   7.505   8.884  10.129
   14DC     SC2   87   7.425   8.994  10.299
   14DC     SC3   88   7.705   9.014  10.269
   15DA     BB1   89   7.025   8.834   9.779
   15DA     BB2   90   7.015   9.174   9.929
   15DA     BB3   91   7.145   9.304   9.869
   15DA     SC1   92   7.305   9.274  10.079
   15DA     SC2   93   7.295   9.344  10.309
   15DA     SC3   94   7.555   9.364  10.309
   15DA     SC4   95   7.465   9.234  10.069
   16DC     BB1   96   6.945   9.494   9.729
   16DC     BB2   97   6.765   9.224   9.889
   16DC     BB3   98   6.625   9.294  10.009
   16DC     SC1   99   6.835   9.334  10.179
   16DC     SC2  100   6.745   9.324  10.379
   16DC     SC3  101   6.975   9.474  10.349
   17DT     BB1  102   6.315   9.254   9.889
   17DT     BB2  103   6.215   9.064  10.169
   17DT     BB3  104   6.315   9.094  10.339
   17DT     SC1  105   6.535   8.964  10.299
   17DT     SC2  106   6.565   8.804  10.439
   17DT     SC3  107   6.785   8.914  10.249
   18DT     BB1  108   6.045   9.254  10.469
   18DT     BB2  109   6.195   9.284  10.799
   18DT     BB3  110   6.385   9.234  10.759
   18DT     SC1  111   6.335   8.974  10.779
   18DT     SC2  112   6.535   8.884  10.779
   18DT     SC3  113   6.275   8.744  10.649
   19DA     BB1  114   6.525   9.554  10.759
   19DA     BB2  115   6.785   9.384  10.889
   19DA     BB3  116   6.955   9.334  10.789
   19DA     SC1  117   6.855   9.064  10.709
   19DA     SC2  118   6.915   8.864  10.819
   19DA     SC3  119   6.875   8.744  10.569
   19DA     SC4  120   6.785   9.024  10.559
   20DG     BB1  121   7.155   9.594  10.849
   20DG     BB2  122   6.915   9.764  11.079
   20DG     BB3  123   6.735   9.814  11.009
   20DG     SC1  124   6.765  10.094  11.029
   20DG     SC2  125   6.945  10.244  11.229
   20DG     SC3  126   6.815  10.424  11.039
   20DG     SC4  127   6.705  10.194  10.909
   21DG     BB1  128   6.655   9.534  10.829
   21DG     BB2  129   6.955   9.324  10.859
   21DG     BB3  130   7.115   9.384  10.749
   21DG     SC1  131   7.115   9.134  10.549
   21DG     SC2  132   7.185   8.864  10.629
   21DG     SC3  133   7.095   8.874  10.349
   21DG     SC4  134   7.035   9.144  10.409
   22DT     BB1  135   7.285   9.634  10.939
   22DT     BB2  136   7.645   9.564  10.949
   22DT     BB3  137   7.725   9.574  10.769
   22DT     SC1  138   7.615   9.344  10.699
   22DT     SC2  139   7.765   9.204  10.629
   22DT     SC3  140   7.445   9.174  10.589
   23DG     BB1  141   7.815   9.884  10.749
   23DG     BB2  142   8.085   9.814  10.569
   23DG     BB3  143   8.025   9.694  10.409
   23DG     SC1  144   8.155   9.444  10.499
   23DG     SC2  145   8.305   9.244  10.349
   23DG     SC3  146   8.065   9.134  10.489
   23DG     SC4  147   8.115   9.374  10.639
   24DA     BB1  148   7.845   9.914  10.199
   24DA     BB2  149   8.035   9.854   9.879
   24DA     BB3  150   7.915   9.724   9.779
   24DA     SC1  151   7.935   9.514   9.969
   24DA     SC2  152   8.135   9.434  10.049
   24DA     SC3  153   7.965   9.264  10.189
   24DA     SC4  154   7.805   9.444  10.039
   25DG     BB1  155   7.725   9.994   9.589
   25DG     BB2  156   7.905   9.954   9.299
   25DG     BB3  157   8.035   9.824   9.339
   25DG     SC1  158   8.275  10.034   9.419
   25DG     SC2  159   8.415  10.184   9.209
   25DG     SC3  160   8.475  10.294   9.479
   25DG     SC4  161   8.305  10.074   9.559
   26DG     BB1  162   7.895   9.554   9.129
   26DG     BB2  163   8.135   9.434   8.919
   26DG     BB3  164   8.145   9.234   8.889
   26DG     SC1  165   8.405   9.174   9.019
   26DG     SC2  166   8.685   9.224   8.909
   26DG     SC3  167   8.695   9.104   9.179
   26DG     SC4  168   8.415   9.084   9.159
   27DA     BB1  169   7.885   9.114   8.709
   27DA     BB2  170   8.165   8.904   8.579
   27DA     BB3  171   8.155   8.724   8.679
   27DA     SC1  172   8.335   8.834   8.889
   27DA     SC2  173   8.545   8.904   8.889
   27DA     SC3  174   8.575   8.794   9.129
   27DA     SC4  175   8.305   8.784   9.049
   28DG     BB1  176   8.125   8.574   8.409
   28DG     BB2  177   8.415   8.384   8.309
   28DG     BB3  178   8.485   8.444   8.129
   28DG     SC1  179   8.255   8.284   8.019
   28DG     SC2  180   8.255   8.104   7.789
   28DG     SC3  181   7.995   8.234   7.799
   28DG     SC4  182   8.105   8.324   8.039
   29DA     BB1  183   8.765   8.624   8.129
   29DA     BB2  184   9.035   8.594   8.369
   29DA     BB3  185   9.075   8.474   8.529
   29DA     SC1  186   8.825   8.534   8.669
   29DA     SC2  187   8.805   8.674   8.839
   29DA     SC3  188   8.555   8.574   8.839
   29DA     SC4  189   8.705   8.434   8.639
   30DA     BB1  190   9.345   8.294   8.389
   30DA     BB2  191   9.345   8.134   8.729
   30DA     BB3  192   9.325   7.944   8.719
   30DA     SC1  193   9.035   7.954   8.629
   30DA     SC2  194   8.855   8.054   8.739
   30DA     SC3  195   8.775   8.124   8.509
   30DA     SC4  196   9.005   7.954   8.469
   31DT     BB1  197   9.635   7.804   8.809
   31DT     BB2  198   9.565   7.574   9.049
   31DT     BB3  199   9.485   7.403   8.979
   31DT     SC1  200   9.245   7.514   8.919
   31DT     SC2  201   9.085   7.404   9.029
   31DT     SC3  202   9.035   7.584   8.759
   32DG     BB1  203   9.755   7.203   9.089
   32DG     BB2  204   9.544   6.933   9.209
   32DG     BB3  205   9.354   6.973   9.149
   32DG     SC1  206   9.265   7.173   9.359
   32DG     SC2  207   9.265   7.153   9.659
   32DG     SC3  208   9.105   7.384   9.569
   32DG     SC4  209   9.195   7.303   9.319
   33DG     BB1  210   9.274   6.664   8.929
   33DG     BB2  211   9.175   6.494   9.209
   33DG     BB3  212   8.984   6.474   9.219
   33DG     SC1  213   8.925   6.734   9.319
   33DG     SC2  214   8.705   6.824   9.499
   33DG     SC3  215   8.845   7.064   9.409
   33DG     SC4  216   8.975   6.874   9.239
   34DA     BB1  217   8.864   6.164   9.099
   34DA     BB2  218   8.534   6.284   9.019
   34DA     BB3  219   8.534   6.484   8.979
   34DA     SC1  220   8.414   6.594   9.209
   34DA     SC2  221   8.255   6.764   9.209
   34DA     SC3  222   8.364   6.854   9.429
   34DA     SC4  223   8.495   6.604   9.349
   35DA     BB1  224   8.544   6.454   8.639
   35DA     BB2  225   8.255   6.694   8.599
   35DA     BB3  226   8.174   6.804   8.739
   35DA     SC1  227   7.994   6.574   8.829
   35DA     SC2  228   7.784   6.514   8.759
   35DA     SC3  229   7.754   6.414   9.009
   35DA     SC4  230   8.034   6.504   8.979
   36DA     BB1  231   8.165   7.144   8.759
   36DA     BB2  232   8.295   7.194   9.119
   36DA     BB3  233   8.465   7.274   9.079
   36DA     SC1  234   8.555   6.994   9.029
   36DA     SC2  235   8.644   6.834   9.169
   36DA     SC3  236   8.824   6.804   8.979
   36DA     SC4  237   8.574   6.934   8.889
   37DC     BB1  238   8.385   7.554   9.259
   37DC     BB2  239   8.545   7.804   9.099
   37DC     BB3  240   8.695   7.714   8.989
   37DC     SC1  241   8.915   7.734   9.159
   37DC     SC2  242   9.085   7.764   9.049
   37DC     SC3  243   9.125   7.693   9.309
   38DG     BB1  244   8.495   7.644   8.739
   38DG     BB2  245   8.685   7.684   8.459
   38DG     BB3  246   8.715   7.534   8.319
   38DG     SC1  247   9.005   7.444   8.389
   38DG     SC2  248   9.255   7.584   8.449
   38DG     SC3  249   9.215   7.354   8.639
   38DG     SC4  250   9.005   7.294   8.459
   39DC     BB1  251   8.555   7.664   8.039
   39DC     BB2  252   8.485   7.954   8.239
   39DC     BB3  253   8.335   7.874   8.339
   39DC     SC1  254   8.165   8.014   8.229
   39DC     SC2  255   8.015   8.054   8.389
   39DC     SC3  256   7.915   8.034   8.129
   40DA     BB1  257   8.555   7.674   8.529
   40DA     BB2  258   8.465   7.484   8.819
   40DA     BB3  259   8.585   7.504   8.979
   40DA     SC1  260   8.785   7.314   8.919
   40DA     SC2  261   8.885   7.154   9.059
   40DA     SC3  262   9.055   7.124   8.859
   40DA     SC4  263   8.845   7.294   8.769
   41DC     BB1  264   8.405   7.744   9.149
   41DC     BB2  265   8.305   7.534   9.379
   41DC     BB3  266   8.415   7.554   9.549
   41DC     SC1  267   8.625   7.474   9.419
   41DC     SC2  268   8.765   7.384   9.569
   41DC     SC3  269   8.865   7.454   9.309
   42DC     BB1  270   8.195   7.544   9.789
   42DC     BB2  271   8.275   7.284   9.989
   42DC     BB3  272   8.475   7.304   9.989
   42DC     SC1  273   8.465   7.184   9.759
   42DC     SC2  274   8.665   7.094   9.739
   42DC     SC3  275   8.505   7.124   9.499
   43DA     BB1  276   8.565   7.454  10.279
   43DA     BB2  277   8.935   7.423  10.279
   43DA     BB3  278   9.005   7.483  10.099
   43DA     SC1  279   9.025   7.234   9.949
   43DA     SC2  280   9.115   7.014   9.959
   43DA     SC3  281   8.965   6.973   9.739
   43DA     SC4  282   8.935   7.244   9.829
   44DT     BB1  283   9.055   7.824  10.129
   44DT     BB2  284   9.215   7.804   9.799
   44DT     BB3  285   9.135   7.933   9.689
   44DT     SC1  286   8.905   7.783   9.719
   44DT     SC2  287   8.815   7.754   9.529
   44DT     SC3  288   8.665   7.694   9.809
   45DT     BB1  289   9.445   8.113   9.619
   45DT     BB2  290   9.395   8.014   9.279
   45DT     BB3  291   9.315   8.163   9.189
   45DT     SC1  292   9.075   8.064   9.259
   45DT     SC2  293   8.965   8.064   9.069
   45DT     SC3  294   8.835   8.084   9.369
   46DA     BB1  295   9.545   8.213   8.939
   46DA     BB2  296   9.265   8.154   8.729
   46DA     BB3  297   9.205   8.324   8.679
   46DA     SC1  298   8.995   8.374   8.879
   46DA     SC2  299   8.785   8.304   8.929
   46DA     SC3  300   8.845   8.394   9.169
   46DA     SC4  301   9.055   8.474   8.989
   47DT     BB1  302   9.315   8.394   8.349
   47DT     BB2  303   8.985   8.534   8.319
   47DT     BB3  304   8.985   8.724   8.329
   47DT     SC1  305   9.005   8.744   8.589
   47DT     SC2  306   8.915   8.934   8.639
   47DT     SC3  307   9.115   8.774   8.829
   48DT     BB1  308   8.835   8.834   8.009
   48DT     BB2  309   8.715   9.184   8.139
   48DT     BB3  310   8.775   9.244   8.309
   48DT     SC1  311   8.665   9.024   8.439
   48DT     SC2  312   8.535   9.094   8.609
   48DT     SC3  313   8.615   8.794   8.569
   49DA     BB1  314   8.945   9.524   8.249
   49DA     BB2  315   9.005   9.684   8.559
   49DA     BB3  316   9.165   9.774   8.589
   49DA     SC1  317   9.345   9.544   8.609
   49DA     SC2  318   9.395   9.424   8.799
   49DA     SC3  319   9.545   9.273   8.639
   49DA     SC4  320   9.415   9.484   8.489
   50DT     BB1  321   9.125  10.074   8.419
   50DT     BB2  322   9.455  10.114   8.349
   50DT     BB3  323   9.455  10.094   8.159
   50DT     SC1  324   9.485   9.824   8.169
   50DT     SC2  325   9.625   9.774   8.009
   50DT     SC3  326   9.425   9.564   8.159
   51DG     BB1  327   9.495  10.404   8.009
   51DG     BB2  328   9.775  10.274   7.859
   51DG     BB3  329   9.795  10.194   7.689
   51DG     SC1  330   9.615   9.944   7.719
   51DG     SC2  331   9.715   9.684   7.619
   51DG     SC3  332   9.415   9.714   7.619
   51DG     SC4  333   9.455   9.974   7.699
   52DG     BB1  334  10.015  10.334   7.489
   52DG     BB2  335  10.125  10.024   7.439
   52DG     BB3  336  10.085   9.944   7.259
   52DG     SC1  337   9.835   9.814   7.329
   52DG     SC2  338   9.765   9.524   7.299
   52DG     SC3  339   9.525   9.694   7.289
   52DG     SC4  340   9.705   9.904   7.359
   53DT     BB1  341  10.415   9.893   7.209
   53DT     BB2  342  10.295   9.544   7.109
   53DT     BB3  343  10.215   9.574   6.929
   53DT     SC1  344   9.965   9.654   6.969
   53DT     SC2  345   9.825   9.484   6.959
   53DT     SC3  346   9.735   9.794   6.999
   54DT     BB1  347  10.405   9.374   6.779
   54DT     BB2  348  10.095   9.224   6.699
   54DT     BB3  349  10.025   9.284   6.529
   54DT     SC1  350   9.905   9.484   6.609
   54DT     SC2  351   9.725   9.494   6.499
   54DT     SC3  352   9.855   9.744   6.649
   55DA     BB1  353   9.995   9.004   6.259
   55DA     BB2  354   9.645   9.084   6.189
   55DA     BB3  355   9.635   9.204   6.019
   55DA     SC1  356   9.595   9.424   6.189
   55DA     SC2  357   9.435   9.484   6.349
   55DA     SC3  358   9.515   9.734   6.339
   55DA     SC4  359   9.685   9.564   6.179
   56DC     BB1  360   9.625   9.024   5.729
   56DC     BB2  361   9.345   9.254   5.649
   56DC     BB3  362   9.415   9.384   5.529
   56DC     SC1  363   9.525   9.494   5.729
   56DC     SC2  364   9.515   9.714   5.709
   56DC     SC3  365   9.735   9.604   5.839
   57DT     BB1  366   9.285   9.224   5.249
   57DT     BB2  367   9.095   9.434   5.029
   57DT     BB3  368   8.955   9.564   5.099
   57DT     SC1  369   8.775   9.384   5.179
   57DT     SC2  370   8.595   9.444   5.079
   57DT     SC3  371   8.625   9.194   5.289
   58DT     BB1  372   9.175   9.824   5.039
   58DT     BB2  373   8.965  10.104   4.979
   58DT     BB3  374   8.835  10.134   5.129
   58DT     SC1  375   8.665   9.944   5.019
   58DT     SC2  376   8.485  10.054   4.999
   58DT     SC3  377   8.525   9.744   4.949
   59DT     BB1  378   8.935  10.384   5.309
   59DT     BB2  379   8.835  10.354   5.649
   59DT     BB3  380   8.735  10.174   5.689
   59DT     SC1  381   8.535  10.274   5.519
   59DT     SC2  382   8.345  10.224   5.609
   59DT     SC3  383   8.395  10.274   5.299
   60DT     BB1  384   8.925  10.084   5.969
   60DT     BB2  385   8.945   9.724   6.029
   60DT     BB3  386   9.025   9.684   6.219
   60DT     SC1  387   9.255   9.714   6.119
   60DT     SC2  388   9.325   9.524   6.019
   60DT     SC3  389   9.495   9.804   6.029
   61DA     BB1  390   8.755   9.624   6.409
   61DA     BB2  391   8.935   9.324   6.579
   61DA     BB3  392   8.975   9.404   6.769
   61DA     SC1  393   9.235   9.534   6.689
   61DA     SC2  394   9.455   9.454   6.699
   61DA     SC3  395   9.535   9.714   6.699
   61DA     SC4  396   9.255   9.684   6.609
   62DC     BB1  397   8.795   9.194   7.009
   62DC     BB2  398   9.115   9.074   6.989
   62DC     BB3  399   9.255   9.124   7.139
   62DC     SC1  400   9.305   9.344   7.019
   62DC     SC2  401   9.505   9.394   7.099
   62DC     SC3  402   9.355   9.614   7.019
   63DC     BB1  403   9.265   8.824   7.339
   63DC     BB2  404   9.615   8.844   7.399
   63DC     BB3  405   9.675   8.904   7.569
   63DC     SC1  406   9.585   9.154   7.509
   63DC     SC2  407   9.715   9.314   7.589
   63DC     SC3  408   9.465   9.394   7.489
   64DA     BB1  409   9.915   8.704   7.729
   64DA     BB2  410  10.055   9.004   7.849
   64DA     BB3  411   9.995   9.073   8.019
   64DA     SC1  412   9.765   9.254   7.939
   64DA     SC2  413   9.775   9.494   7.919
   64DA     SC3  414   9.515   9.474   7.859
   64DA     SC4  415   9.625   9.214   7.909
   65DT     BB1  416  10.315   9.073   8.139
   65DT     BB2  417  10.195   9.413   8.099
   65DT     BB3  418  10.185   9.504   8.269
   65DT     SC1  419   9.925   9.434   8.239
   65DT     SC2  420   9.815   9.624   8.229
   65DT     SC3  421   9.675   9.344   8.289
   66DG     BB1  422  10.475   9.633   8.279
   66DG     BB2  423  10.425   9.993   8.329
   66DG     BB3  424  10.575  10.093   8.409
   66DG     SC1  425  10.565   9.933   8.669
   66DG     SC2  426  10.475  10.043   8.929
   66DG     SC3  427  10.565   9.773   8.949
   66DG     SC4  428  10.635   9.793   8.669
   67DA     BB1  429  10.705  10.223   8.119
   67DA     BB2  430  10.735  10.553   8.239
   67DA     BB3  431  10.585  10.553   8.359
   67DA     SC1  432  10.405  10.503   8.129
   67DA     SC2  433  10.375  10.644   7.959
   67DA     SC3  434  10.195  10.463   7.899
   67DA     SC4  435  10.355  10.344   8.099
   68DG     BB1  436  10.605  10.663   8.679
   68DG     BB2  437  10.485  10.523   8.999
   68DG     BB3  438  10.665  10.533   9.089
   68DG     SC1  439  10.755  10.283   8.949
   68DG     SC2  440  10.755  10.003   9.059
   68DG     SC3  441  10.855  10.003   8.789
   68DG     SC4  442  10.775  10.273   8.799
   69DT     BB1  443  10.635  10.743   9.339
   69DT     BB2  444  10.275  10.673   9.359
   69DT     BB3  445  10.245  10.543   9.499
   69DT     SC1  446  10.415  10.343   9.409
   69DT     SC2  447  10.345  10.183   9.549
   69DT     SC3  448  10.625  10.173   9.389
   70DA     BB1  449  10.115  10.613   9.809
   70DA     BB2  450   9.845  10.423   9.749
   70DA     BB3  451   9.845  10.273   9.899
   70DA     SC1  452  10.125  10.173   9.879
   70DA     SC2  453  10.175   9.953   9.829
   70DA     SC3  454  10.425  10.023   9.889
   70DA     SC4  455  10.255  10.253   9.919
   71DT     BB1  456   9.555  10.253  10.059
   71DT     BB2  457   9.685   9.923  10.009
   71DT     BB3  458   9.745   9.873  10.189
   71DT     SC1  459   9.995   9.933  10.139
   71DT     SC2  460  10.115   9.753  10.199
   71DT     SC3  461  10.225  10.053  10.169
   72DG     BB1  462   9.575   9.623  10.299
   72DG     BB2  463   9.785   9.383  10.449
   72DG     BB3  464   9.785   9.343  10.639
   72DG     SC1  465   9.985   9.573  10.689
   72DG     SC2  466  10.245   9.523  10.829
   72DG     SC3  467  10.135   9.783  10.899
   72DG     SC4  468   9.955   9.723  10.679
   73DC     BB1  469   9.615   9.013  10.609
   73DC     BB2  470   9.855   8.863  10.789
   73DC     BB3  471   9.835   8.873  10.999
   73DC     SC1  472   9.895   9.133  11.009
   73DC     SC2  473  10.085   9.153  11.109
   73DC     SC3  474   9.945   9.393  11.019
   74DA     BB1  475   9.845   8.553  11.119
   74DA     BB2  476   9.915   8.703  11.429
   74DA     BB3  477   9.755   8.783  11.509
   74DA     SC1  478   9.805   9.063  11.479
   74DA     SC2  479   9.925   9.203  11.609
   74DA     SC3  480   9.955   9.333  11.369
   74DA     SC4  481   9.755   9.123  11.349
    1MG      MG  482   8.299   3.599  15.552
    2MG      MG  483   9.822  15.466  17.805
    3MG      MG  484  13.052   9.642   9.315
    4MG      MG  485   8.090  16.740   4.443
    5MG      MG  486   8.554   3.014   4.898
    6MG      MG  487  11.704  12.917   4.105
    7MG      MG  488   6.264  13.117   0.339
    8MG      MG  489   7.174  10.000   0.550
    9MG      MG  490   2.081   9.162  11.970
   10MG      MG  491   8.733   9.570  15.968
   11MG      MG  492   7.004   6.175  13.497
   12MG      MG  493  14.190   5.069  16.860
   13MG      MG  494  14.920   4.968   7.021
   14MG      MG  495  15.069   1.826  10.976
   15MG      MG  496  10.153   2.395   1.595
   16MG      MG  497   8.846   7.569   4.807
   17MG      MG  498   8.168  15.224  15.569
   18MG      MG  499  10.215   0.458   3.872
   19MG      MG  500  10.937   3.066   0.569
   20MG      MG  501  12.674  17.985   4.354
   21MG      MG  502  15.536   6.526   5.472
   22MG      MG  503  13.633  14.600  15.336
   23MG      MG  504  14.644   5.441   4.138
   24MG      MG  505   2.759   5.848  16.378
   25MG      MG  506  10.927  16.871  11.063
   26MG      MG  507   4.961   9.172  16.198
   27MG      MG  508  14.021  12.055   7.901
   28MG      MG  509  14.638  11.277   8.867
   29MG      MG  510   4.674   7.837   2.300
   30MG      MG  511   6.681   1.885  13.968
   31MG      MG  512   5.648  16.267  15.826
   32MG      MG  513  11.680   3.473   0.051
   33MG      MG  514   7.736  12.365  14.897
   34MG      MG  515  15.998   2.825   2.130
   35MG      MG  516   1.057  11.152   0.434
   36MG      MG  517   5.155   3.228   6.394
   37MG      MG  518   1.703   3.237  12.612
   38W        W  519   0.084   3.595   3.359
   39W        W  520   0.460   2.488   2.882
   40W        W  521   3.165   2.218   0.652
   41W        W  522   3.295   3.303   2.679
   42W        W  523   1.213   3.294   0.205
   43W        W  524   1.296   1.446   1.188
   44W        W  525   0.811   1.294   1.352
   45W        W  526   1.802   2.109   0.786
   46W        W  527   1.477   3.201   3.141
   47W        W  528   0.126   0.762   3.104
   48W        W  529   0.888   0.042   2.906
   49W        W  530   2.582   0.430   1.793
   50W        W  531   2.231   1.301   0.363
   51W        W  532   2.801   0.735   3.454
   52W        W  533   0.167   0.527   2.579
   53W        W  534   0.266   3.146   3.600
   54W        W  535   1.788   2.536   0.332
   55W        W  536   0.220   1.319   2.025
   56W        W  537   1.113   1.210   3.262
   57W        W  538   3.572   1.069   1.761
   58W        W  539   3.336   2.112   2.620
   59W        W  540   1.644   1.445   1.647
   60W        W  541   2.190   2.784   2.016
   61W        W  542   0.690   2.218   2.248
   62W        W  543   0.049   1.746   1.819
   63W        W  544   1.085   1.718   3.011
   64W        W  545   3.356   1.501   3.265
   65W        W  546   0.972   2.945   1.710
   66W        W  547   2.093   2.634   2.844
   67W        W  548   1.313   1.274   2.069
   68W        W  549   1.605   2.058   1.712
   69W        W  550   2.602   2.831   3.560
   70W        W  551   1.681   2.151   3.570
   71W        W  552   1.662   1.867   3.048
   72W        W  553   0.071   1.258   3.570
   73W        W  554   2.903   2.793   3.169
   74W        W  555   0.484   0.375   1.167
   75W        W  556   1.011   2.633   2.166
   76W        W  557   3.474   2.416   1.456
   77W        W  558   2.887   0.816   2.023
   78W        W  559   3.172   0.769   0.118
   79W        W  560   3.637   1.570   2.424
   80W        W  561   1.604   3.277   2.177
   81W        W  562   3.378   2.743   0.615
   82W        W  563   0.507   3.529   0.369
   83W        W  564   0.900   3.575   1.045
   84W        W  565   0.697   0.329   2.471
   85W        W  566   3.320   1.347   2.746
   86W        W  567   2.725   1.769   1.205
   87W        W  568   2.691   1.457   0.232
   88W        W  569   1.899   2.601   2.372
   89W        W  570   1.705   0.931   1.571
   90W        W  571   2.305   3.018   2.565
   91W        W  572   3.176   1.809   0.987
   92W        W  573   2.078   0.467   1.003
   93W        W  574   0.735   3.161   0.686
   94W        W  575   0.106   0.660   1.285
   95W        W  576   2.892   1.267   1.759
   96W        W  577   0.350   2.884   1.674
   97W        W  578   1.691   3.234   0.544
   98W        W  579   3.083   1.260   0.008
   99W        W  580   0.106   3.018   2.172
  100W        W  581   1.270   1.950   1.271
  101W        W  582   1.292   0.355   2.364
  102W        W  583   3.521   0.117   1.661
  103W        W  584   0.740   1.989   0.129
  104W        W  585   0.395   1.022   0.308
  105W        W  586   0.457   2.978   1.102
  106W        W  587   1.588   2.461   1.350
  107W        W  588   2.920   3.320   3.064
  108W        W  589   1.846   0.962   0.748
  109W        W  590   3.229   3.360   1.520
  110W        W  591   2.906   1.213   3.118
  111W        W  592   3.619   2.869   1.252
  112W        W  593   2.246   2.161   2.736
  113W        W  594   0.012   1.712   0.942
  114W        W  595   1.123   2.127   2.515
  115W        W  596   2.327   1.391   0.893
  116W        W  597   2.204   1.881   0.997
  117W        W  598   0.547   1.301   2.471
  118W        W  599   0.532   1.177   3.393
  119W        W  600   0.422   0.094   1.552
  120W        W  601   2.190   0.441   2.113
  121W        W  602   1.838   0.626   3.276
  122W        W  603   2.193   0.775   0.454
  123W        W  604   3.376   3.168   3.208
  124W        W  605   2.343   0.249   3.247
  125W        W  606   3.362   2.550   3.369
  126W        W  607   2.792   0.717   2.965
  127W        W  608   2.592   0.655   1.235
  128W        W  609   2.985   1.789   3.639
  129W        W  610   0.725   3.365   1.625
  130W        W  611   1.383   1.082   0.611
  131W        W  612   0.952   0.366   3.275
  132W        W  613   3.004   0.850   0.956
  133W        W  614   3.371   1.332   0.901
  134W        W  615   1.114   3.549   3.372
  135W        W  616   1.040   0.085   0.607
  136W        W  617   3.361   0.619   1.642
  137W        W  618   3.511   2.868   0.087
  138W        W  619   0.418   2.071   1.789
  139W        W  620   2.335   0.658   0.019
  140W        W  621   3.469   2.990   1.739
  141W        W  622   3.508   0.184   2.489
  142W        W  623   1.953   1.396   3.043
  143W        W  624   2.046   2.735   0.746
  144W        W  625   2.446   2.029   3.486
  145W        W  626   2.120   0.006   1.795
  146W        W  627   0.732   0.909   1.858
  147W        W  628   0.286   2.109   2.632
  148W        W  629   2.145   3.302   1.338
  149W        W  630   3.339   0.899   2.210
  150W        W  631   1.976   3.246   2.977
  151W        W  632   3.319   2.305   0.182
  152W        W  633   1.754   1.788   1.243
  153W        W  634   3.606   0.299   2.984
  154W        W  635   1.755   2.134   2.578
  155W        W  636   1.972   1.020   2.023
  156W        W  637   2.824   1.318   0.861
  157W        W  638   3.111   1.051   0.503
  158W        W  639   2.920   3.091   0.892
  159W        W  640   2.754   2.694   1.688
  160W        W  641   2.650   1.773   0.666
  161W        W  642   2.964   1.771   1.719
  162W        W  643   0.339   0.786   2.143
  163W        W  644   3.117   1.838   2.970
  164W        W  645   3.468   3.456   2.116
  165W        W  646   1.398   2.900   1.518
  166W        W  647   2.405   3.433   2.842
  167W        W  648   2.399   0.763   2.606
  168W        W  649   1.606   3.471   2.667
  169W        W  650   3.303   0.425   1.133
  170W        W  651   3.094   1.744   2.434
  171W        W  652   0.077   1.065   2.472
  172W        W  653   2.937   0.860   1.490
  173W        W  654   3.348   1.011   3.267
  174W        W  655   2.233   2.710   1.485
  175W        W  656   1.489   3.301   1.098
  176W        W  657   0.604   0.481   0.356
  177W        W  658   1.708   0.135   2.166
  178W        W  659   0.736   3.255   0.014
  179W        W  660   1.110   1.721   0.765
  180W        W  661   1.764   2.350   3.078
  181W        W  662   1.594   0.708   1.068
  182W        W  663   2.950   0.305   1.496
  183W        W  664   2.670   3.587   1.824
  184W        W  665   2.082   3.235   2.164
  185W        W  666   1.478   2.272   2.125
  186W        W  667   3.248   2.995   2.251
  187W        W  668   0.942   0.498   1.020
  188W        W  669   1.464   2.795   1.980
  189W        W  670   0.947   0.726   0.045
  190W        W  671   1.748   1.335   2.439
  191W        W  672   2.596   0.201   2.309
  192W        W  673   0.016   2.044   2.194
  193W        W  674   1.720   1.862   0.352
  194W        W  675   0.988   0.177   0.122
  195W        W  676   1.726   1.258   1.173
  196W        W  677   2.696   0.234   2.872
  197W        W  678   1.284   2.246   2.981
  198W        W  679   2.088   2.028   3.198
  199W        W  680   2.705   2.058   3.091
  200W        W  681   1.989   0.198   3.596
  201W        W  682   1.211   0.814   1.989
  202W        W  683   0.637   0.770   1.387
  203W        W  684   0.423   3.482   1.063
  204W        W  685   1.755   2.812   3.188
  205W        W  686   0.790   2.297   0.547
  206W        W  687   2.470   1.682   1.768
  207W        W  688   2.750   1.481   2.167
  208W        W  689   1.955   2.155   2.101
  209W        W  690   2.425   2.529   0.233
  210W        W  691   2.097   0.550   1.561
  211W        W  692   3.576   0.828   0.829
  212W        W  693   0.070   3.417   2.860
  213W        W  694   0.487   2.643   2.392
  214W        W  695   0.054   3.489   0.624
  215W        W  696   1.953   0.759   2.430
  216W        W  697   1.316   2.782   0.279
  217W        W  698   3.221   3.164   0.465
  218W        W  699   2.196   1.817   0.479
  219W        W  700   1.039   1.008   0.996
  220W        W  701   1.871   0.918   0.048
  221W        W  702   2.455   2.483   3.226
  222W        W  703   2.808   0.389   0.843
  223W        W  704   0.138   0.237   0.291
  224W        W  705   1.424   2.556   2.581
  225W        W  706   1.223   2.472   1.673
  226W        W  707   0.965   2.424   0.071
  227W        W  708   0.206   2.665   0.839
  228W        W  709   0.710   1.735   3.281
  229W        W  710   1.414   0.295   3.467
  230W        W  711   2.123   0.437   2.823
  231W        W  712   1.318   0.205   1.104
  232W        W  713   2.377   0.282   0.609
  233W        W  714   0.322   0.214   2.186
  234W        W  715   0.370   1.177   1.556
  235W        W  716   3.059   0.285   1.962
  236W        W  717   0.481   0.783   0.776
  237W        W  718   3.052   0.471   2.392
  238W        W  719   3.448   1.674   0.077
  239W        W  720   0.740   0.432   1.896
  240W        W  721   1.854   1.004   2.836
  241W        W  722   0.002   0.694   0.314
  242W        W  723   0.788   2.083   2.875
  243W        W  724   2.146   1.481   2.054
  244W        W  725   2.013   3.560   0.350
  245W        W  726   0.159   2.067   0.047
  246W        W  727   0.894   2.478   3.173
  247W        W  728   0.415   1.645   2.804
  248W        W  729   1.406   1.750   2.598
  249W        W  730   3.174   0.109   2.860
  250W        W  731   3.572   1.719   2.851
  251W        W  732   3.560   1.919   0.537
  252W        W  733   2.423   2.251   0.636
  253W        W  734   2.897   3.551   0.331
  254W        W  735   2.074   1.541   3.473
  255W        W  736   0.404   2.508   3.513
  256W        W  737   3.610   0.430   3.465
  257W        W  738   3.328   1.358   2.086
  258W        W  739   1.636   3.488   3.563
  259W        W  740   1.491   0.117   0.290
  260W        W  741   3.030   2.716   0.233
  261W        W  742   0.799   0.809   3.119
  262W        W  743   1.233   2.803   2.981
  263W        W  744   3.359   0.794   2.779
  264W        W  745   2.570   3.453   0.747
  265W        W  746   2.809   2.072   2.114
  266W        W  747   1.059   0.488   2.781
  267W        W  748   1.528   1.557   3.538
  268W        W  749   1.031   2.736   0.732
  269W        W  750   2.786   2.234   0.996
  270W        W  751   0.554   0.860   2.720
  271W        W  752   1.883   2.922   1.184
  272W        W  753   3.633   1.482   1.365
  273W        W  754   1.855   0.115   3.084
  274W        W  755   2.635   2.820   2.163
  275W        W  756   2.938   3.164   1.871
  276W        W  757   2.157   2.966   0.299
  277W        W  758   0.167   2.858   3.141
  278W        W  759   0.910   0.850   2.379
  279W        W  760   0.880   0.198   1.489
  280W        W  761   2.501   1.040   2.181
  281W        W  762   1.299   2.211   0.381
  282W        W  763   3.297   2.153   1.880
  283W        W  764   3.011   3.593   1.100
  284W        W  765   1.110   0.613   1.545
  285W        W  766   0.879   2.106   1.635
  286W        W  767   1.192   3.517   2.385
  287W        W  768   3.259   3.613   3.417
  288W        W  769   2.418   1.801   2.350
  289W        W  770   0.267   1.599   0.265
  290W        W  771   3.401   3.257   0.962
  291W        W  772   3.238   0.581   0.581
  292W        W  773   1.377   0.100   2.984
  293W        W  774   3.083   2.902   1.442
  294W        W  775   3.112   1.458   1.347
  295W        W  776   1.229   1.131   1.563
  296W        W  777   1.474   1.393   2.887
  297W        W  778   2.585   2.546   2.750
  298W        W  779   1.235   1.000   2.862
  299W        W  780   1.214   3.466   1.478
  300W        W  781   0.531   3.425   3.112
  301W        W  782   0.643   2.786   0.242
  302W        W  783   3.160   2.544   1.052
  303W        W  784   0.764   1.336   2.938
  304W        W  785   3.537   1.266   0.419
  305W        W  786   1.282   2.323   0.890
  306W        W  787   2.381   1.705   2.971
  307W        W  788   2.272   1.333   2.515
  308W        W  789   0.832   1.705   2.544
  309W        W  790   3.042   3.593   2.373
  310W        W  791   2.833   0.227   3.367
  311W        W  792   0.497   0.377   2.954
  312W        W  793   0.836   1.400   2.007
  313W        W  794   1.205   1.214   0.129
  314W        W  795   0.008   2.973   2.674
  315W        W  796   1.593   1.682   2.117
  316W        W  797   1.416   0.707   0.222
  317W        W  798   0.551   1.523   1.003
  318W        W  799   0.322   3.375   2.440
  319W        W  800   3.117   1.601   0.548
  320W        W  801   3.212   0.517   3.234
  321W        W  802   2.648   2.726   1.197
  322W        W  803   0.246   1.650   3.374
  323W        W  804   3.212   0.114   0.670
  324W        W  805   2.732   2.589   0.681
  325W        W  806   2.821   0.451   0.289
  326W        W  807   2.886   1.058   2.475
  327W        W  808   0.595   1.651   1.682
  328W        W  809   0.889   2.590   1.331
  329W        W  810   2.652   1.210   1.296
  330W        W  811   1.675   0.589   1.992
  331W        W  812   3.637   2.500   2.503
  332W        W  813   3.555   0.487   2.064
  333W        W  814   0.094   3.317   1.440
  334W        W  815   0.603   2.504   0.976
  335W        W  816   0.518   0.121   3.529
  336W        W  817   1.637   2.974   3.631
  337W        W  818   3.392   1.942   1.421
  338W        W  819   2.746   2.119   0.301
  339W        W  820   2.041   3.640   2.513
  340W        W  821   2.898   2.362   3.550
  341W        W  822   1.713   0.072   0.830
  342W        W  823   2.426   0.941   1.689
  343W        W  824   0.112   2.528   2.021
  344W        W  825   1.365   0.490   0.662
  345W        W  826   1.169   1.974   3.511
  346W        W  827   2.163   0.955   1.225
  347W        W  828   2.368   2.365   2.347
  348W        W  829   0.522   2.970   2.782
  349W        W  830   1.113   2.953   3.505
  350W        W  831   0.964   0.750   0.519
  351W        W  832   2.481   0.892   0.844
  352W        W  833   2.439   3.000   3.081
  353W        W  834   1.124   1.592   1.680
  354W        W  835   0.779   3.290   2.545
  355W        W  836   3.524   3.407   0.146
  356W        W  837   0.387   2.079   3.142
  357W        W  838   2.382   2.341   1.830
  358W        W  839   0.818   1.990   1.072
  359W        W  840   1.189   2.997   2.467
  360W        W  841   1.567   0.416   1.508
  361W        W  842   0.178   2.400   0.438
  362W        W  843   1.697   1.351   0.308
  363W        W  844   0.343   1.900   1.327
  364W        W  845   1.633   0.542   2.791
  365W        W  846   3.305   0.251   0.218
  366W        W  847   3.398   1.997   3.317
  367W        W  848   2.052   3.254   3.469
  368W        W  849   3.610   2.348   2.991
  369W        W  850   3.018   3.146   3.602
  370W        W  851   0.757   3.602   2.080
  371W        W  852   3.616   2.224   0.954
  372W        W  853   2.146   1.491   1.467
  373W        W  854   1.913   0.103   1.357
  374W        W  855   0.972   3.087   1.194
  375W        W  856   1.471   0.828   2.419
  376W        W  857   1.171   0.197   1.888
  377W        W  858   0.234   3.019   0.436
  378W        W  859   2.050   2.383   1.154
  379W        W  860   0.925   3.178   3.033
  380W        W  861   0.402   2.001   0.729
  381W        W  862   0.287   0.544   1.728
  382W        W  863   1.835   2.509   1.785
  383W        W  864   0.087   0.363   0.805
  384W        W  865   2.751   1.569   2.732
  385W        W  866   2.628   0.955   0.304
  386W        W  867   3.145   2.627   1.952
  387W        W  868   1.806   3.111   1.783
  388W        W  869   1.218   3.215   0.694
  389W        W  870   2.500   0.118   0.124
  390W        W  871   0.300   3.378   1.865
  391W        W  872   2.497   1.136   3.500
  392W        W  873   0.480   0.666   3.499
  393W        W  874   0.211   1.266   0.832
  394W        W  875   0.902   1.255   0.557
  395W        W  876   2.665   1.582   3.374
  396W        W  877   1.008   1.863   2.083
  397W        W  878   2.482   0.149   1.203
  398W        W  879   1.613   3.580   1.706
  399W        W  880   2.827   3.042   2.643
  400W        W  881   2.411   3.191   1.754
  401W        W  882   2.430   2.171   1.348
  402W        W  883   1.892   0.396   0.419
  403W        W  884   3.573   0.024   1.141
  404W        W  885   1.261   1.659   0.304
  405W        W  886   3.427   0.996   1.294
  406W        W  887   2.119   2.166   0.171
  407W        W  888   3.055   2.366   2.919
  408W        W  889   2.709   3.067   0.386
  409W        W  890   1.324   0.742   3.292
  410W        W  891   1.144   1.326   2.533
  411W        W  892   3.236   2.821   2.810
  412W        W  893   2.336   0.771   3.187
  413W        W  894   0.180   1.242   2.964
  414W        W  895   1.940   1.719   2.690
  415W        W  896   0.297   2.477   1.347
  416W        W  897   0.444   1.774   2.237
  417W        W  898   2.761   2.060   2.587
  418W        W  899   2.533   3.440   3.398
  419W        W  900   2.429   1.179   2.951
  420W        W  901   2.706   3.233   1.356
  421W        W  902   1.708   2.953   2.679
  422W        W  903   1.193   3.308   1.948
  423W        W  904   2.998   2.479   2.367
  424W        W  905   2.048   2.551   3.504
  425W        W  906   0.653   2.504   1.843
  426W        W  907   2.999   2.263   1.488
  427W        W  908   2.640   3.329   2.239
  428W        W  909   0.618   3.058   2.109
  429W        W  910   1.639   1.110   3.319
  430W        W  911   2.090   3.276   0.830
  431W        W  912   1.398   2.531   3.468
  432W        W  913   1.524   2.769   0.845
  433W        W  914   0.745   1.509   0.104
  434W        W  915   0.084   3.595   7.003
  435W        W  916   0.460   2.488   6.526
  436W        W  917   3.165   2.218   4.296
  437W        W  918   3.295   3.303   6.323
  438W        W  919   1.213   3.294   3.849
  439W        W  920   1.296   1.446   4.832
  440W        W  921   0.811   1.294   4.996
  441W        W  922   1.802   2.109   4.430
  442W        W  923   1.477   3.201   6.785
  443W        W  924   0.126   0.762   6.748
  444W        W  925   0.888   0.042   6.550
  445W        W  926   2.582   0.430   5.437
  446W        W  927   2.231   1.301   4.007
  447W        W  928   2.801   0.735   7.098
  448W        W  929   0.167   0.527   6.223
  449W        W  930   0.266   3.146   7.244
  450W        W  931   1.788   2.536   3.976
  451W        W  932   0.220   1.319   5.669
  452W        W  933   1.113   1.210   6.906
  453W        W  934   3.572   1.069   5.405
  454W        W  935   3.336   2.112   6.264
  455W        W  936   1.644   1.445   5.291
  456W        W  937   2.190   2.784   5.660
  457W        W  938   0.690   2.218   5.892
  458W        W  939   0.049   1.746   5.463
  459W        W  940   1.085   1.718   6.655
  460W        W  941   3.356   1.501   6.909
  461W        W  942   0.972   2.945   5.354
  462W        W  943   2.093   2.634   6.488
  463W        W  944   1.313   1.274   5.713
  464W        W  945   1.605   2.058   5.356
  465W        W  946   2.602   2.831   7.204
  466W        W  947   1.681   2.151   7.214
  467W        W  948   1.662   1.867   6.692
  468W        W  949   0.071   1.258   7.214
  469W        W  950   2.903   2.793   6.813
  470W        W  951   0.484   0.375   4.811
  471W        W  952   1.011   2.633   5.810
  472W        W  953   3.474   2.416   5.100
  473W        W  954   2.887   0.816   5.667
  474W        W  955   3.172   0.769   3.762
  475W        W  956   3.637   1.570   6.068
  476W        W  957   1.604   3.277   5.821
  477W        W  958   3.378   2.743   4.259
  478W        W  959   0.507   3.529   4.013
  479W        W  960   0.900   3.575   4.689
  480W        W  961   0.697   0.329   6.115
  481W        W  962   3.320   1.347   6.390
  482W        W  963   2.725   1.769   4.849
  483W        W  964   2.691   1.457   3.876
  484W        W  965   1.899   2.601   6.016
  485W        W  966   1.705   0.931   5.215
  486W        W  967   2.305   3.018   6.209
  487W        W  968   3.176   1.809   4.631
  488W        W  969   2.078   0.467   4.647
  489W        W  970   0.735   3.161   4.330
  490W        W  971   0.106   0.660   4.929
  491W        W  972   2.892   1.267   5.403
  492W        W  973   0.350   2.884   5.318
  493W        W  974   1.691   3.234   4.188
  494W        W  975   0.897   2.590   6.296
  495W        W  976   1.270   1.950   4.915
  496W        W  977   1.292   0.355   6.008
  497W        W  978   3.521   0.117   5.305
  498W        W  979   0.740   1.989   3.773
  499W        W  980   0.395   1.022   3.952
  500W        W  981   0.457   2.978   4.746
  501W        W  982   1.588   2.461   4.994
  502W        W  983   2.920   3.320   6.708
  503W        W  984   1.846   0.962   4.392
  504W        W  985   3.229   3.360   5.164
  505W        W  986   2.906   1.213   6.762
  506W        W  987   3.619   2.869   4.896
  507W        W  988   2.246   2.161   6.380
  508W        W  989   0.012   1.712   4.586
  509W        W  990   1.123   2.127   6.159
  510W        W  991   2.327   1.391   4.537
  511W        W  992   2.204   1.881   4.641
  512W        W  993   0.547   1.301   6.115
  513W        W  994   0.532   1.177   7.037
  514W        W  995   0.422   0.094   5.196
  515W        W  996   2.190   0.441   5.757
  516W        W  997   1.838   0.626   6.920
  517W        W  998   3.376   3.168   6.852
  518W        W  999   2.343   0.249   6.891
  519W        W 1000   3.362   2.550   7.013
  520W        W 1001   2.792   0.717   6.609
  521W        W 1002   2.592   0.655   4.879
  522W        W 1003   2.985   1.789   7.283
  523W        W 1004   0.725   3.365   5.269
  524W        W 1005   1.383   1.082   4.255
  525W        W 1006   0.952   0.366   6.919
  526W        W 1007   3.004   0.850   4.600
  527W        W 1008   3.371   1.332   4.545
  528W        W 1009   1.114   3.549   7.016
  529W        W 1010   1.040   0.085   4.251
  530W        W 1011   3.361   0.619   5.286
  531W        W 1012   3.511   2.868   3.731
  532W        W 1013   2.335   0.658   3.663
  533W        W 1014   3.469   2.990   5.383
  534W        W 1015   3.508   0.184   6.133
  535W        W 1016   1.953   1.396   6.687
  536W        W 1017   2.046   2.735   4.390
  537W        W 1018   2.446   2.029   7.130
  538W        W 1019   2.120   0.006   5.439
  539W        W 1020   0.732   0.909   5.502
  540W        W 1021   0.286   2.109   6.276
  541W        W 1022   2.145   3.302   4.982
  542W        W 1023   3.339   0.899   5.854
  543W        W 1024   1.976   3.246   6.621
  544W        W 1025   3.319   2.305   3.826
  545W        W 1026   1.754   1.788   4.887
  546W        W 1027   3.606   0.299   6.628
  547W        W 1028   1.755   2.134   6.222
  548W        W 1029   1.972   1.020   5.667
  549W        W 1030   2.824   1.318   4.505
  550W        W 1031   3.111   1.051   4.147
  551W        W 1032   2.920   3.091   4.536
  552W        W 1033   2.754   2.694   5.332
  553W        W 1034   2.650   1.773   4.310
  554W        W 1035   2.083   1.983   5.296
  555W        W 1036   2.964   1.771   5.363
  556W        W 1037   0.339   0.786   5.787
  557W        W 1038   3.117   1.838   6.614
  558W        W 1039   3.468   3.456   5.760
  559W        W 1040   1.398   2.900   5.162
  560W        W 1041   2.405   3.433   6.486
  561W        W 1042   2.399   0.763   6.250
  562W        W 1043   1.606   3.471   6.311
  563W        W 1044   3.303   0.425   4.777
  564W        W 1045   3.094   1.744   6.078
  565W        W 1046   0.077   1.065   6.116
  566W        W 1047   2.937   0.860   5.134
  567W        W 1048   3.348   1.011   6.911
  568W        W 1049   2.233   2.710   5.129
  569W        W 1050   1.489   3.301   4.742
  570W        W 1051   0.604   0.481   4.000
  571W        W 1052   1.708   0.135   5.810
  572W        W 1053   0.736   3.255   3.658
  573W        W 1054   1.110   1.721   4.409
  574W        W 1055   1.764   2.350   6.722
  575W        W 1056   1.594   0.708   4.712
  576W        W 1057   2.950   0.305   5.140
  577W        W 1058   2.670   3.587   5.468
  578W        W 1059   2.082   3.235   5.808
  579W        W 1060   1.478   2.272   5.769
  580W        W 1061   3.248   2.995   5.895
  581W        W 1062   0.942   0.498   4.664
  582W        W 1063   1.464   2.795   5.624
  583W        W 1064   0.947   0.726   3.689
  584W        W 1065   1.748   1.335   6.083
  585W        W 1066   2.596   0.201   5.953
  586W        W 1067   0.016   2.044   5.838
  587W        W 1068   1.720   1.862   3.996
  588W        W 1069   0.988   0.177   3.766
  589W        W 1070   1.726   1.258   4.817
  590W        W 1071   2.696   0.234   6.516
  591W        W 1072   1.284   2.246   6.625
  592W        W 1073   2.088   2.028   6.842
  593W        W 1074   2.705   2.058   6.735
  594W        W 1075   1.989   0.198   7.240
  595W        W 1076   1.211   0.814   5.633
  596W        W 1077   0.637   0.770   5.031
  597W        W 1078   0.423   3.482   4.707
  598W        W 1079   1.755   2.812   6.832
  599W        W 1080   0.790   2.297   4.191
  600W        W 1081   2.470   1.682   5.412
  601W        W 1082   2.750   1.481   5.811
  602W        W 1083   1.955   2.155   5.745
  603W        W 1084   2.425   2.529   3.877
  604W        W 1085   2.097   0.550   5.205
  605W        W 1086   3.576   0.828   4.473
  606W        W 1087   0.070   3.417   6.504
  607W        W 1088   0.487   2.643   6.036
  608W        W 1089   0.054   3.489   4.268
  609W        W 1090   1.953   0.759   6.074
  610W        W 1091   1.316   2.782   3.923
  611W        W 1092   3.221   3.164   4.109
  612W        W 1093   2.196   1.817   4.123
  613W        W 1094   1.039   1.008   4.640
  614W        W 1095   1.871   0.918   3.692
  615W        W 1096   2.455   2.483   6.870
  616W        W 1097   2.808   0.389   4.487
  617W        W 1098   0.138   0.237   3.935
  618W        W 1099   1.424   2.556   6.225
  619W        W 1100   1.223   2.472   5.317
  620W        W 1101   0.965   2.424   3.715
  621W        W 1102   0.206   2.665   4.483
  622W        W 1103   0.710   1.735   6.925
  623W        W 1104   1.414   0.295   7.111
  624W        W 1105   2.123   0.437   6.467
  625W        W 1106   1.318   0.205   4.748
  626W        W 1107   2.377   0.282   4.253
  627W        W 1108   0.322   0.214   5.830
  628W        W 1109   0.370   1.177   5.200
  629W        W 1110   3.059   0.285   5.606
  630W        W 1111   0.481   0.783   4.420
  631W        W 1112   3.052   0.471   6.036
  632W        W 1113   3.448   1.674   3.721
  633W        W 1114   0.740   0.432   5.540
  634W        W 1115   1.854   1.004   6.480
  635W        W 1116   0.002   0.694   3.958
  636W        W 1117   0.788   2.083   6.519
  637W        W 1118   2.146   1.481   5.698
  638W        W 1119   2.013   3.560   3.994
  639W        W 1120   0.159   2.067   3.691
  640W        W 1121   0.894   2.478   6.817
  641W        W 1122   0.415   1.645   6.448
  642W        W 1123   1.406   1.750   6.242
  643W        W 1124   3.174   0.109   6.504
  644W        W 1125   3.572   1.719   6.495
  645W        W 1126   3.560   1.919   4.181
  646W        W 1127   2.423   2.251   4.280
  647W        W 1128   2.897   3.551   3.975
  648W        W 1129   2.074   1.541   7.117
  649W        W 1130   0.404   2.508   7.157
  650W        W 1131   3.610   0.430   7.109
  651W        W 1132   3.328   1.358   5.730
  652W        W 1133   1.636   3.488   7.207
  653W        W 1134   1.491   0.117   3.934
  654W        W 1135   3.030   2.716   3.877
  655W        W 1136   0.799   0.809   6.763
  656W        W 1137   1.233   2.803   6.625
  657W        W 1138   3.359   0.794   6.423
  658W        W 1139   2.570   3.453   4.391
  659W        W 1140   2.809   2.072   5.758
  660W        W 1141   1.059   0.488   6.425
  661W        W 1142   1.528   1.557   7.182
  662W        W 1143   1.031   2.736   4.376
  663W        W 1144   2.786   2.234   4.640
  664W        W 1145   0.554   0.860   6.364
  665W        W 1146   1.883   2.922   4.828
  666W        W 1147   3.633   1.482   5.009
  667W        W 1148   1.855   0.115   6.728
  668W        W 1149   2.635   2.820   5.807
  669W        W 1150   2.938   3.164   5.515
  670W        W 1151   2.157   2.966   3.943
  671W        W 1152   0.167   2.858   6.785
  672W        W 1153   0.910   0.850   6.023
  673W        W 1154   0.880   0.198   5.133
  674W        W 1155   2.501   1.040   5.825
  675W        W 1156   1.299   2.211   4.025
  676W        W 1157   3.297   2.153   5.524
  677W        W 1158   0.624   2.911   6.947
  678W        W 1159   3.011   3.593   4.744
  679W        W 1160   1.110   0.613   5.189
  680W        W 1161   0.879   2.106   5.279
  681W        W 1162   1.192   3.517   6.029
  682W        W 1163   3.259   3.613   7.061
  683W        W 1164   2.418   1.801   5.994
  684W        W 1165   0.267   1.599   3.909
  685W        W 1166   3.401   3.257   4.606
  686W        W 1167   3.238   0.581   4.225
  687W        W 1168   1.377   0.100   6.628
  688W        W 1169   3.083   2.902   5.086
  689W        W 1170   3.112   1.458   4.991
  690W        W 1171   1.229   1.131   5.207
  691W        W 1172   1.474   1.393   6.531
  692W        W 1173   2.585   2.546   6.394
  693W        W 1174   1.235   1.000   6.506
  694W        W 1175   1.214   3.466   5.122
  695W        W 1176   0.531   3.425   6.756
  696W        W 1177   0.643   2.786   3.886
  697W        W 1178   3.160   2.544   4.696
  698W        W 1179   0.764   1.336   6.582
  699W        W 1180   3.537   1.266   4.063
  700W        W 1181   1.282   2.323   4.534
  701W        W 1182   2.381   1.705   6.615
  702W        W 1183   2.272   1.333   6.159
  703W        W 1184   0.832   1.705   6.188
  704W        W 1185   3.042   3.593   6.017
  705W        W 1186   2.833   0.227   7.011
  706W        W 1187   0.497   0.377   6.598
  707W        W 1188   0.836   1.400   5.651
  708W        W 1189   1.205   1.214   3.773
  709W        W 1190   0.008   2.973   6.318
  710W        W 1191   1.593   1.682   5.761
  711W        W 1192   1.416   0.707   3.866
  712W        W 1193   0.551   1.523   4.647
  713W        W 1194   0.322   3.375   6.084
  714W        W 1195   3.117   1.601   4.192
  715W        W 1196   3.212   0.517   6.878
  716W        W 1197   2.648   2.726   4.841
  717W        W 1198   0.246   1.650   7.018
  718W        W 1199   3.212   0.114   4.314
  719W        W 1200   2.732   2.589   4.325
  720W        W 1201   1.634   1.647   4.410
  721W        W 1202   2.821   0.451   3.933
  722W        W 1203   2.886   1.058   6.119
  723W        W 1204   0.595   1.651   5.326
  724W        W 1205   0.889   2.590   4.975
  725W        W 1206   2.652   1.210   4.940
  726W        W 1207   1.675   0.589   5.636
  727W        W 1208   3.637   2.500   6.147
  728W        W 1209   3.555   0.487   5.708
  729W        W 1210   0.094   3.317   5.084
  730W        W 1211   0.603   2.504   4.620
  731W        W 1212   0.518   0.121   7.173
  732W        W 1213   1.637   2.974   7.275
  733W        W 1214   3.392   1.942   5.065
  734W        W 1215   2.746   2.119   3.945
  735W        W 1216   2.041   3.640   6.157
  736W        W 1217   2.898   2.362   7.194
  737W        W 1218   1.713   0.072   4.474
  738W        W 1219   2.426   0.941   5.333
  739W        W 1220   0.112   2.528   5.665
  740W        W 1221   1.365   0.490   4.306
  741W        W 1222   1.169   1.974   7.155
  742W        W 1223   2.163   0.955   4.869
  743W        W 1224   2.368   2.365   5.991
  744W        W 1225   0.522   2.970   6.426
  745W        W 1226   1.113   2.953   7.149
  746W        W 1227   0.964   0.750   4.163
  747W        W 1228   2.481   0.892   4.488
  748W        W 1229   1.124   1.592   5.324
  749W        W 1230   0.779   3.290   6.189
  750W        W 1231   3.524   3.407   3.790
  751W        W 1232   0.387   2.079   6.786
  752W        W 1233   2.382   2.341   5.474
  753W        W 1234   0.818   1.990   4.716
  754W        W 1235   1.189   2.997   6.111
  755W        W 1236   1.567   0.416   5.152
  756W        W 1237   0.178   2.400   4.082
  757W        W 1238   1.697   1.351   3.952
  758W        W 1239   0.343   1.900   4.971
  759W        W 1240   1.633   0.542   6.435
  760W        W 1241   3.305   0.251   3.862
  761W        W 1242   3.398   1.997   6.961
  762W        W 1243   2.052   3.254   7.113
  763W        W 1244   3.610   2.348   6.635
  764W        W 1245   3.018   3.146   7.246
  765W        W 1246   0.757   3.602   5.724
  766W        W 1247   3.616   2.224   4.598
  767W        W 1248   2.146   1.491   5.111
  768W        W 1249   1.913   0.103   5.001
  769W        W 1250   0.972   3.087   4.838
  770W        W 1251   1.471   0.828   6.063
  771W        W 1252   1.171   0.197   5.532
  772W        W 1253   0.234   3.019   4.080
  773W        W 1254   2.050   2.383   4.798
  774W        W 1255   0.925   3.178   6.677
  775W        W 1256   0.402   2.001   4.373
  776W        W 1257   0.287   0.544   5.372
  777W        W 1258   1.835   2.509   5.429
  778W        W 1259   0.087   0.363   4.449
  779W        W 1260   2.751   1.569   6.376
  780W        W 1261   2.628   0.955   3.948
  781W        W 1262   3.145   2.627   5.596
  782W        W 1263   1.806   3.111   5.427
  783W        W 1264   1.218   3.215   4.338
  784W        W 1265   2.500   0.118   3.768
  785W        W 1266   0.300   3.378   5.509
  786W        W 1267   2.497   1.136   7.144
  787W        W 1268   0.480   0.666   7.143
  788W        W 1269   0.211   1.266   4.476
  789W        W 1270   0.902   1.255   4.201
  790W        W 1271   2.665   1.582   7.018
  791W        W 1272   1.008   1.863   5.727
  792W        W 1273   2.482   0.149   4.847
  793W        W 1274   1.613   3.580   5.350
  794W        W 1275   2.827   3.042   6.287
  795W        W 1276   2.411   3.191   5.398
  796W        W 1277   2.430   2.171   4.992
  797W        W 1278   1.892   0.396   4.063
  798W        W 1279   3.573   0.024   4.785
  799W        W 1280   1.261   1.659   3.948
  800W        W 1281   3.427   0.996   4.938
  801W        W 1282   2.119   2.166   3.815
  802W        W 1283   3.055   2.366   6.563
  803W        W 1284   2.709   3.067   4.030
  804W        W 1285   1.324   0.742   6.936
  805W        W 1286   1.144   1.326   6.177
  806W        W 1287   3.236   2.821   6.454
  807W        W 1288   2.336   0.771   6.831
  808W        W 1289   0.180   1.242   6.608
  809W        W 1290   1.940   1.719   6.334
  810W        W 1291   0.297   2.477   4.991
  811W        W 1292   0.444   1.774   5.881
  812W        W 1293   2.761   2.060   6.231
  813W        W 1294   2.533   3.440   7.042
  814W        W 1295   2.429   1.179   6.595
  815W        W 1296   2.706   3.233   5.000
  816W        W 1297   1.708   2.953   6.323
  817W        W 1298   1.193   3.308   5.592
  818W        W 1299   2.998   2.479   6.011
  819W        W 1300   2.048   2.551   7.148
  820W        W 1301   0.653   2.504   5.487
  821W        W 1302   2.999   2.263   5.132
  822W        W 1303   2.640   3.329   5.883
  823W        W 1304   0.618   3.058   5.753
  824W        W 1305   1.639   1.110   6.963
  825W        W 1306   2.090   3.276   4.474
  826W        W 1307   1.398   2.531   7.112
  827W        W 1308   1.524   2.769   4.489
  828W        W 1309   0.745   1.509   3.748
  829W        W 1310   0.084   3.595  10.648
  830W        W 1311   0.460   2.488  10.171
  831W        W 1312   3.165   2.218   7.941
  832W        W 1313   3.295   3.303   9.968
  833W        W 1314   1.213   3.294   7.494
  834W        W 1315   1.296   1.446   8.477
  835W        W 1316   0.811   1.294   8.641
  836W        W 1317   1.802   2.109   8.075
  837W        W 1318   1.477   3.201  10.430
  838W        W 1319   0.126   0.762  10.393
  839W        W 1320   0.888   0.042  10.195
  840W        W 1321   2.582   0.430   9.082
  841W        W 1322   2.231   1.301   7.652
  842W        W 1323   2.801   0.735  10.743
  843W        W 1324   0.167   0.527   9.868
  844W        W 1325   0.266   3.146  10.889
  845W        W 1326   1.788   2.536   7.621
  846W        W 1327   0.220   1.319   9.314
  847W        W 1328   1.113   1.210  10.551
  848W        W 1329   3.572   1.069   9.050
  849W        W 1330   3.336   2.112   9.909
  850W        W 1331   1.644   1.445   8.936
  851W        W 1332   2.190   2.784   9.305
  852W        W 1333   0.690   2.218   9.537
  853W        W 1334   0.049   1.746   9.108
  854W        W 1335   1.085   1.718  10.300
  855W        W 1336   3.356   1.501  10.554
  856W        W 1337   0.972   2.945   8.999
  857W        W 1338   2.093   2.634  10.133
  858W        W 1339   1.313   1.274   9.358
  859W        W 1340   1.605   2.058   9.001
  860W        W 1341   2.602   2.831  10.849
  861W        W 1342   1.681   2.151  10.859
  862W        W 1343   1.662   1.867  10.337
  863W        W 1344   0.071   1.258  10.859
  864W        W 1345   2.903   2.793  10.458
  865W        W 1346   0.484   0.375   8.456
  866W        W 1347   1.011   2.633   9.455
  867W        W 1348   3.474   2.416   8.745
  868W        W 1349   2.887   0.816   9.312
  869W        W 1350   3.172   0.769   7.407
  870W        W 1351   3.637   1.570   9.713
  871W        W 1352   1.604   3.277   9.466
  872W        W 1353   3.378   2.743   7.904
  873W        W 1354   0.507   3.529   7.658
  874W        W 1355   0.900   3.575   8.334
  875W        W 1356   0.697   0.329   9.760
  876W        W 1357   3.320   1.347  10.035
  877W        W 1358   2.725   1.769   8.494
  878W        W 1359   2.691   1.457   7.521
  879W        W 1360   1.899   2.601   9.661
  880W        W 1361   1.705   0.931   8.860
  881W        W 1362   2.305   3.018   9.854
  882W        W 1363   3.176   1.809   8.276
  883W        W 1364   2.078   0.467   8.292
  884W        W 1365   0.735   3.161   7.975
  885W        W 1366   0.106   0.660   8.574
  886W        W 1367   2.892   1.267   9.048
  887W        W 1368   0.350   2.884   8.963
  888W        W 1369   1.691   3.234   7.833
  889W        W 1370   3.083   1.260   7.297
  890W        W 1371   0.106   3.018   9.461
  891W        W 1372   0.897   2.590   9.941
  892W        W 1373   1.270   1.950   8.560
  893W        W 1374   3.521   0.117   8.950
  894W        W 1375   0.740   1.989   7.418
  895W        W 1376   0.395   1.022   7.597
  896W        W 1377   0.457   2.978   8.391
  897W        W 1378   1.588   2.461   8.639
  898W        W 1379   2.920   3.320  10.353
  899W        W 1380   1.846   0.962   8.037
  900W        W 1381   3.229   3.360   8.809
  901W        W 1382   2.906   1.213  10.407
  902W        W 1383   3.619   2.869   8.541
  903W        W 1384   2.246   2.161  10.025
  904W        W 1385   0.012   1.712   8.231
  905W        W 1386   1.123   2.127   9.804
  906W        W 1387   2.327   1.391   8.182
  907W        W 1388   2.204   1.881   8.286
  908W        W 1389   0.547   1.301   9.760
  909W        W 1390   0.532   1.177  10.682
  910W        W 1391   0.422   0.094   8.841
  911W        W 1392   2.190   0.441   9.402
  912W        W 1393   1.838   0.626  10.565
  913W        W 1394   2.193   0.775   7.743
  914W        W 1395   3.376   3.168  10.497
  915W        W 1396   2.343   0.249  10.536
  916W        W 1397   3.362   2.550  10.658
  917W        W 1398   2.792   0.717  10.254
  918W        W 1399   2.592   0.655   8.524
  919W        W 1400   2.985   1.789  10.928
  920W        W 1401   0.725   3.365   8.914
  921W        W 1402   1.383   1.082   7.900
  922W        W 1403   0.952   0.366  10.564
  923W        W 1404   3.004   0.850   8.245
  924W        W 1405   3.371   1.332   8.190
  925W        W 1406   1.114   3.549  10.661
  926W        W 1407   1.040   0.085   7.896
  927W        W 1408   3.361   0.619   8.931
  928W        W 1409   3.511   2.868   7.376
  929W        W 1410   0.418   2.071   9.078
  930W        W 1411   2.335   0.658   7.308
  931W        W 1412   3.469   2.990   9.028
  932W        W 1413   3.508   0.184   9.778
  933W        W 1414   1.953   1.396  10.332
  934W        W 1415   2.046   2.735   8.035
  935W        W 1416   2.446   2.029  10.775
  936W        W 1417   2.120   0.006   9.084
  937W        W 1418   0.732   0.909   9.147
  938W        W 1419   0.286   2.109   9.921
  939W        W 1420   2.145   3.302   8.627
  940W        W 1421   3.339   0.899   9.499
  941W        W 1422   1.976   3.246  10.266
  942W        W 1423   3.319   2.305   7.471
  943W        W 1424   1.754   1.788   8.532
  944W        W 1425   3.606   0.299  10.273
  945W        W 1426   1.755   2.134   9.867
  946W        W 1427   1.972   1.020   9.312
  947W        W 1428   2.824   1.318   8.150
  948W        W 1429   3.111   1.051   7.792
  949W        W 1430   2.920   3.091   8.181
  950W        W 1431   2.754   2.694   8.977
  951W        W 1432   2.650   1.773   7.955
  952W        W 1433   2.083   1.983   8.941
  953W        W 1434   2.964   1.771   9.008
  954W        W 1435   0.339   0.786   9.432
  955W        W 1436   3.117   1.838  10.259
  956W        W 1437   3.468   3.456   9.405
  957W        W 1438   1.398   2.900   8.807
  958W        W 1439   2.405   3.433  10.131
  959W        W 1440   2.399   0.763   9.895
  960W        W 1441   1.606   3.471   9.956
  961W        W 1442   3.303   0.425   8.422
  962W        W 1443   3.094   1.744   9.723
  963W        W 1444   0.077   1.065   9.761
  964W        W 1445   2.937   0.860   8.779
  965W        W 1446   3.348   1.011  10.556
  966W        W 1447   2.233   2.710   8.774
  967W        W 1448   1.489   3.301   8.387
  968W        W 1449   0.604   0.481   7.645
  969W        W 1450   1.708   0.135   9.455
  970W        W 1451   0.736   3.255   7.303
  971W        W 1452   1.110   1.721   8.054
  972W        W 1453   1.764   2.350  10.367
  973W        W 1454   1.594   0.708   8.357
  974W        W 1455   2.950   0.305   8.785
  975W        W 1456   2.670   3.587   9.113
  976W        W 1457   2.082   3.235   9.453
  977W        W 1458   1.478   2.272   9.414
  978W        W 1459   3.248   2.995   9.540
  979W        W 1460   0.942   0.498   8.309
  980W        W 1461   1.464   2.795   9.269
  981W        W 1462   0.947   0.726   7.334
  982W        W 1463   1.748   1.335   9.728
  983W        W 1464   2.596   0.201   9.598
  984W        W 1465   0.016   2.044   9.483
  985W        W 1466   1.720   1.862   7.641
  986W        W 1467   0.988   0.177   7.411
  987W        W 1468   1.726   1.258   8.462
  988W        W 1469   2.696   0.234  10.161
  989W        W 1470   1.284   2.246  10.270
  990W        W 1471   2.088   2.028  10.487
  991W        W 1472   2.705   2.058  10.380
  992W        W 1473   1.989   0.198  10.885
  993W        W 1474   1.211   0.814   9.278
  994W        W 1475   0.637   0.770   8.676
  995W        W 1476   0.423   3.482   8.352
  996W        W 1477   1.755   2.812  10.477
  997W        W 1478   0.790   2.297   7.836
  998W        W 1479   2.470   1.682   9.057
  999W        W 1480   2.750   1.481   9.456
 1000W        W 1481   1.955   2.155   9.390
 1001W        W 1482   2.425   2.529   7.522
 1002W        W 1483   2.097   0.550   8.850
 1003W        W 1484   3.576   0.828   8.118
 1004W        W 1485   0.070   3.417  10.149
 1005W        W 1486   0.487   2.643   9.681
 1006W        W 1487   0.054   3.489   7.913
 1007W        W 1488   1.953   0.759   9.719
 1008W        W 1489   1.316   2.782   7.568
 1009W        W 1490   3.221   3.164   7.754
 1010W        W 1491   2.196   1.817   7.768
 1011W        W 1492   1.039   1.008   8.285
 1012W        W 1493   1.871   0.918   7.337
 1013W        W 1494   2.455   2.483  10.515
 1014W        W 1495   2.808   0.389   8.132
 1015W        W 1496   0.138   0.237   7.580
 1016W        W 1497   1.424   2.556   9.870
 1017W        W 1498   1.223   2.472   8.962
 1018W        W 1499   0.965   2.424   7.360
 1019W        W 1500   0.206   2.665   8.128
 1020W        W 1501   0.710   1.735  10.570
 1021W        W 1502   1.414   0.295  10.756
 1022W        W 1503   2.123   0.437  10.112
 1023W        W 1504   1.318   0.205   8.393
 1024W        W 1505   2.377   0.282   7.898
 1025W        W 1506   0.322   0.214   9.475
 1026W        W 1507   0.370   1.177   8.845
 1027W        W 1508   3.059   0.285   9.251
 1028W        W 1509   0.481   0.783   8.065
 1029W        W 1510   3.052   0.471   9.681
 1030W        W 1511   3.448   1.674   7.366
 1031W        W 1512   0.740   0.432   9.185
 1032W        W 1513   1.854   1.004  10.125
 1033W        W 1514   0.002   0.694   7.603
 1034W        W 1515   0.788   2.083  10.164
 1035W        W 1516   2.146   1.481   9.343
 1036W        W 1517   2.013   3.560   7.639
 1037W        W 1518   0.159   2.067   7.336
 1038W        W 1519   0.894   2.478  10.462
 1039W        W 1520   0.415   1.645  10.093
 1040W        W 1521   1.406   1.750   9.887
 1041W        W 1522   3.174   0.109  10.149
 1042W        W 1523   3.572   1.719  10.140
 1043W        W 1524   3.560   1.919   7.826
 1044W        W 1525   2.423   2.251   7.925
 1045W        W 1526   2.897   3.551   7.620
 1046W        W 1527   2.074   1.541  10.762
 1047W        W 1528   0.404   2.508  10.802
 1048W        W 1529   3.610   0.430  10.754
 1049W        W 1530   3.328   1.358   9.375
 1050W        W 1531   1.636   3.488  10.852
 1051W        W 1532   1.491   0.117   7.579
 1052W        W 1533   3.030   2.716   7.522
 1053W        W 1534   0.799   0.809  10.408
 1054W        W 1535   1.233   2.803  10.270
 1055W        W 1536   3.359   0.794  10.068
 1056W        W 1537   2.570   3.453   8.036
 1057W        W 1538   2.809   2.072   9.403
 1058W        W 1539   1.528   1.557  10.827
 1059W        W 1540   1.031   2.736   8.021
 1060W        W 1541   2.786   2.234   8.285
 1061W        W 1542   0.554   0.860  10.009
 1062W        W 1543   1.883   2.922   8.473
 1063W        W 1544   3.633   1.482   8.654
 1064W        W 1545   1.855   0.115  10.373
 1065W        W 1546   2.635   2.820   9.452
 1066W        W 1547   2.938   3.164   9.160
 1067W        W 1548   2.157   2.966   7.588
 1068W        W 1549   0.167   2.858  10.430
 1069W        W 1550   0.910   0.850   9.668
 1070W        W 1551   0.880   0.198   8.778
 1071W        W 1552   2.501   1.040   9.470
 1072W        W 1553   1.299   2.211   7.670
 1073W        W 1554   3.297   2.153   9.169
 1074W        W 1555   0.624   2.911  10.592
 1075W        W 1556   3.011   3.593   8.389
 1076W        W 1557   1.110   0.613   8.834
 1077W        W 1558   0.879   2.106   8.924
 1078W        W 1559   1.192   3.517   9.674
 1079W        W 1560   3.259   3.613  10.706
 1080W        W 1561   2.418   1.801   9.639
 1081W        W 1562   0.267   1.599   7.554
 1082W        W 1563   3.401   3.257   8.251
 1083W        W 1564   3.238   0.581   7.870
 1084W        W 1565   1.377   0.100  10.273
 1085W        W 1566   3.083   2.902   8.731
 1086W        W 1567   3.112   1.458   8.636
 1087W        W 1568   1.229   1.131   8.852
 1088W        W 1569   1.474   1.393  10.176
 1089W        W 1570   2.585   2.546  10.039
 1090W        W 1571   1.235   1.000  10.151
 1091W        W 1572   1.214   3.466   8.767
 1092W        W 1573   0.531   3.425  10.401
 1093W        W 1574   0.643   2.786   7.531
 1094W        W 1575   3.160   2.544   8.341
 1095W        W 1576   0.764   1.336  10.227
 1096W        W 1577   3.537   1.266   7.708
 1097W        W 1578   1.282   2.323   8.179
 1098W        W 1579   2.381   1.705  10.260
 1099W        W 1580   2.272   1.333   9.804
 1100W        W 1581   0.832   1.705   9.833
 1101W        W 1582   3.042   3.593   9.662
 1102W        W 1583   2.833   0.227  10.656
 1103W        W 1584   0.497   0.377  10.243
 1104W        W 1585   0.836   1.400   9.296
 1105W        W 1586   1.205   1.214   7.418
 1106W        W 1587   0.008   2.973   9.963
 1107W        W 1588   1.593   1.682   9.406
 1108W        W 1589   1.416   0.707   7.511
 1109W        W 1590   0.551   1.523   8.292
 1110W        W 1591   0.322   3.375   9.729
 1111W        W 1592   3.117   1.601   7.837
 1112W        W 1593   3.212   0.517  10.523
 1113W        W 1594   2.648   2.726   8.486
 1114W        W 1595   0.246   1.650  10.663
 1115W        W 1596   3.212   0.114   7.959
 1116W        W 1597   2.732   2.589   7.970
 1117W        W 1598   1.634   1.647   8.055
 1118W        W 1599   2.821   0.451   7.578
 1119W        W 1600   2.886   1.058   9.764
 1120W        W 1601   0.595   1.651   8.971
 1121W        W 1602   0.889   2.590   8.620
 1122W        W 1603   2.652   1.210   8.585
 1123W        W 1604   1.675   0.589   9.281
 1124W        W 1605   3.637   2.500   9.792
 1125W        W 1606   3.555   0.487   9.353
 1126W        W 1607   0.094   3.317   8.729
 1127W        W 1608   0.603   2.504   8.265
 1128W        W 1609   0.518   0.121  10.818
 1129W        W 1610   1.637   2.974  10.920
 1130W        W 1611   3.392   1.942   8.710
 1131W        W 1612   2.746   2.119   7.590
 1132W        W 1613   2.041   3.640   9.802
 1133W        W 1614   2.898   2.362  10.839
 1134W        W 1615   1.713   0.072   8.119
 1135W        W 1616   2.426   0.941   8.978
 1136W        W 1617   0.112   2.528   9.310
 1137W        W 1618   1.365   0.490   7.951
 1138W        W 1619   1.169   1.974  10.800
 1139W        W 1620   2.163   0.955   8.514
 1140W        W 1621   2.368   2.365   9.636
 1141W        W 1622   0.522   2.970  10.071
 1142W        W 1623   1.113   2.953  10.794
 1143W        W 1624   0.964   0.750   7.808
 1144W        W 1625   2.481   0.892   8.133
 1145W        W 1626   2.439   3.000  10.370
 1146W        W 1627   1.124   1.592   8.969
 1147W        W 1628   0.779   3.290   9.834
 1148W        W 1629   3.524   3.407   7.435
 1149W        W 1630   0.387   2.079  10.431
 1150W        W 1631   2.382   2.341   9.119
 1151W        W 1632   0.818   1.990   8.361
 1152W        W 1633   1.189   2.997   9.756
 1153W        W 1634   1.567   0.416   8.797
 1154W        W 1635   0.178   2.400   7.727
 1155W        W 1636   1.697   1.351   7.597
 1156W        W 1637   0.343   1.900   8.616
 1157W        W 1638   1.633   0.542  10.080
 1158W        W 1639   3.305   0.251   7.507
 1159W        W 1640   3.398   1.997  10.606
 1160W        W 1641   2.052   3.254  10.758
 1161W        W 1642   3.610   2.348  10.280
 1162W        W 1643   3.018   3.146  10.891
 1163W        W 1644   0.757   3.602   9.369
 1164W        W 1645   3.616   2.224   8.243
 1165W        W 1646   2.146   1.491   8.756
 1166W        W 1647   1.913   0.103   8.646
 1167W        W 1648   0.972   3.087   8.483
 1168W        W 1649   1.471   0.828   9.708
 1169W        W 1650   1.171   0.197   9.177
 1170W        W 1651   0.234   3.019   7.725
 1171W        W 1652   2.050   2.383   8.443
 1172W        W 1653   0.925   3.178  10.322
 1173W        W 1654   0.402   2.001   8.018
 1174W        W 1655   0.287   0.544   9.017
 1175W        W 1656   1.835   2.509   9.074
 1176W        W 1657   0.087   0.363   8.094
 1177W        W 1658   2.751   1.569  10.021
 1178W        W 1659   2.628   0.955   7.593
 1179W        W 1660   3.145   2.627   9.241
 1180W        W 1661   1.806   3.111   9.072
 1181W        W 1662   1.218   3.215   7.983
 1182W        W 1663   2.500   0.118   7.413
 1183W        W 1664   2.497   1.136  10.789
 1184W        W 1665   0.480   0.666  10.788
 1185W        W 1666   0.211   1.266   8.121
 1186W        W 1667   0.902   1.255   7.846
 1187W        W 1668   2.665   1.582  10.663
 1188W        W 1669   1.008   1.863   9.372
 1189W        W 1670   2.482   0.149   8.492
 1190W        W 1671   1.613   3.580   8.995
 1191W        W 1672   2.827   3.042   9.932
 1192W        W 1673   2.411   3.191   9.043
 1193W        W 1674   2.430   2.171   8.637
 1194W        W 1675   1.892   0.396   7.708
 1195W        W 1676   3.573   0.024   8.430
 1196W        W 1677   1.261   1.659   7.593
 1197W        W 1678   3.427   0.996   8.583
 1198W        W 1679   2.119   2.166   7.460
 1199W        W 1680   3.055   2.366  10.208
 1200W        W 1681   2.709   3.067   7.675
 1201W        W 1682   1.324   0.742  10.581
 1202W        W 1683   1.144   1.326   9.822
 1203W        W 1684   3.236   2.821  10.099
 1204W        W 1685   2.336   0.771  10.476
 1205W        W 1686   0.180   1.242  10.253
 1206W        W 1687   1.940   1.719   9.979
 1207W        W 1688   0.297   2.477   8.636
 1208W        W 1689   0.444   1.774   9.526
 1209W        W 1690   2.761   2.060   9.876
 1210W        W 1691   2.533   3.440  10.687
 1211W        W 1692   2.429   1.179  10.240
 1212W        W 1693   2.706   3.233   8.645
 1213W        W 1694   1.708   2.953   9.968
 1214W        W 1695   1.193   3.308   9.237
 1215W        W 1696   2.998   2.479   9.656
 1216W        W 1697   2.048   2.551  10.793
 1217W        W 1698   0.653   2.504   9.132
 1218W        W 1699   2.999   2.263   8.777
 1219W        W 1700   2.640   3.329   9.528
 1220W        W 1701   0.618   3.058   9.398
 1221W        W 1702   1.639   1.110  10.608
 1222W        W 1703   2.090   3.276   8.119
 1223W        W 1704   1.398   2.531  10.757
 1224W        W 1705   1.524   2.769   8.134
 1225W        W 1706   0.745   1.509   7.393
 1226W        W 1707   0.084   3.595  14.292
 1227W        W 1708   0.460   2.488  13.815
 1228W        W 1709   3.165   2.218  11.585
 1229W        W 1710   3.295   3.303  13.612
 1230W        W 1711   1.213   3.294  11.138
 1231W        W 1712   1.296   1.446  12.121
 1232W        W 1713   0.811   1.294  12.285
 1233W        W 1714   1.802   2.109  11.719
 1234W        W 1715   1.477   3.201  14.074
 1235W        W 1716   0.126   0.762  14.037
 1236W        W 1717   0.888   0.042  13.839
 1237W        W 1718   2.582   0.430  12.726
 1238W        W 1719   2.231   1.301  11.296
 1239W        W 1720   2.801   0.735  14.387
 1240W        W 1721   0.167   0.527  13.512
 1241W        W 1722   0.266   3.146  14.533
 1242W        W 1723   1.788   2.536  11.265
 1243W        W 1724   0.220   1.319  12.958
 1244W        W 1725   1.113   1.210  14.195
 1245W        W 1726   3.572   1.069  12.694
 1246W        W 1727   3.336   2.112  13.553
 1247W        W 1728   1.644   1.445  12.580
 1248W        W 1729   2.190   2.784  12.949
 1249W        W 1730   0.690   2.218  13.181
 1250W        W 1731   0.049   1.746  12.752
 1251W        W 1732   1.085   1.718  13.944
 1252W        W 1733   3.356   1.501  14.198
 1253W        W 1734   0.972   2.945  12.643
 1254W        W 1735   2.093   2.634  13.777
 1255W        W 1736   1.313   1.274  13.002
 1256W        W 1737   1.605   2.058  12.645
 1257W        W 1738   2.602   2.831  14.493
 1258W        W 1739   1.681   2.151  14.503
 1259W        W 1740   1.662   1.867  13.981
 1260W        W 1741   0.071   1.258  14.503
 1261W        W 1742   2.903   2.793  14.102
 1262W        W 1743   0.484   0.375  12.100
 1263W        W 1744   1.011   2.633  13.099
 1264W        W 1745   3.474   2.416  12.389
 1265W        W 1746   2.887   0.816  12.956
 1266W        W 1747   3.172   0.769  11.051
 1267W        W 1748   3.637   1.570  13.357
 1268W        W 1749   1.604   3.277  13.110
 1269W        W 1750   3.378   2.743  11.548
 1270W        W 1751   0.507   3.529  11.302
 1271W        W 1752   0.900   3.575  11.978
 1272W        W 1753   0.697   0.329  13.404
 1273W        W 1754   3.320   1.347  13.679
 1274W        W 1755   2.725   1.769  12.138
 1275W        W 1756   2.691   1.457  11.165
 1276W        W 1757   1.899   2.601  13.305
 1277W        W 1758   1.705   0.931  12.504
 1278W        W 1759   2.305   3.018  13.498
 1279W        W 1760   3.176   1.809  11.920
 1280W        W 1761   2.078   0.467  11.936
 1281W        W 1762   0.735   3.161  11.619
 1282W        W 1763   0.106   0.660  12.218
 1283W        W 1764   2.892   1.267  12.692
 1284W        W 1765   0.350   2.884  12.607
 1285W        W 1766   1.691   3.234  11.477
 1286W        W 1767   3.083   1.260  10.941
 1287W        W 1768   0.106   3.018  13.105
 1288W        W 1769   0.897   2.590  13.585
 1289W        W 1770   1.270   1.950  12.204
 1290W        W 1771   3.521   0.117  12.594
 1291W        W 1772   0.740   1.989  11.062
 1292W        W 1773   0.395   1.022  11.241
 1293W        W 1774   0.457   2.978  12.035
 1294W        W 1775   1.588   2.461  12.283
 1295W        W 1776   2.920   3.320  13.997
 1296W        W 1777   1.846   0.962  11.681
 1297W        W 1778   3.229   3.360  12.453
 1298W        W 1779   2.906   1.213  14.051
 1299W        W 1780   3.619   2.869  12.185
 1300W        W 1781   0.012   1.712  11.875
 1301W        W 1782   1.123   2.127  13.448
 1302W        W 1783   2.327   1.391  11.826
 1303W        W 1784   2.204   1.881  11.930
 1304W        W 1785   0.547   1.301  13.404
 1305W        W 1786   0.532   1.177  14.326
 1306W        W 1787   0.422   0.094  12.485
 1307W        W 1788   2.190   0.441  13.046
 1308W        W 1789   1.838   0.626  14.209
 1309W        W 1790   2.193   0.775  11.387
 1310W        W 1791   3.376   3.168  14.141
 1311W        W 1792   2.343   0.249  14.180
 1312W        W 1793   3.362   2.550  14.302
 1313W        W 1794   2.792   0.717  13.898
 1314W        W 1795   2.592   0.655  12.168
 1315W        W 1796   2.985   1.789  14.572
 1316W        W 1797   0.725   3.365  12.558
 1317W        W 1798   1.383   1.082  11.544
 1318W        W 1799   0.952   0.366  14.208
 1319W        W 1800   3.004   0.850  11.889
 1320W        W 1801   3.371   1.332  11.834
 1321W        W 1802   1.114   3.549  14.305
 1322W        W 1803   1.040   0.085  11.540
 1323W        W 1804   3.361   0.619  12.575
 1324W        W 1805   3.511   2.868  11.020
 1325W        W 1806   0.418   2.071  12.722
 1326W        W 1807   2.335   0.658  10.952
 1327W        W 1808   3.469   2.990  12.672
 1328W        W 1809   3.508   0.184  13.422
 1329W        W 1810   1.953   1.396  13.976
 1330W        W 1811   2.046   2.735  11.679
 1331W        W 1812   2.446   2.029  14.419
 1332W        W 1813   2.120   0.006  12.728
 1333W        W 1814   0.732   0.909  12.791
 1334W        W 1815   0.286   2.109  13.565
 1335W        W 1816   2.145   3.302  12.271
 1336W        W 1817   3.339   0.899  13.143
 1337W        W 1818   1.976   3.246  13.910
 1338W        W 1819   3.319   2.305  11.115
 1339W        W 1820   1.754   1.788  12.176
 1340W        W 1821   3.606   0.299  13.917
 1341W        W 1822   1.755   2.134  13.511
 1342W        W 1823   1.972   1.020  12.956
 1343W        W 1824   2.824   1.318  11.794
 1344W        W 1825   3.111   1.051  11.436
 1345W        W 1826   2.920   3.091  11.825
 1346W        W 1827   2.754   2.694  12.621
 1347W        W 1828   2.650   1.773  11.599
 1348W        W 1829   2.083   1.983  12.585
 1349W        W 1830   2.964   1.771  12.652
 1350W        W 1831   0.339   0.786  13.076
 1351W        W 1832   3.117   1.838  13.903
 1352W        W 1833   3.468   3.456  13.049
 1353W        W 1834   1.398   2.900  12.451
 1354W        W 1835   2.405   3.433  13.775
 1355W        W 1836   2.399   0.763  13.539
 1356W        W 1837   1.606   3.471  13.600
 1357W        W 1838   3.303   0.425  12.066
 1358W        W 1839   3.094   1.744  13.367
 1359W        W 1840   0.077   1.065  13.405
 1360W        W 1841   2.937   0.860  12.423
 1361W        W 1842   2.233   2.710  12.418
 1362W        W 1843   1.489   3.301  12.031
 1363W        W 1844   0.604   0.481  11.289
 1364W        W 1845   1.708   0.135  13.099
 1365W        W 1846   0.736   3.255  10.947
 1366W        W 1847   1.110   1.721  11.698
 1367W        W 1848   1.764   2.350  14.011
 1368W        W 1849   1.594   0.708  12.001
 1369W        W 1850   2.950   0.305  12.429
 1370W        W 1851   2.670   3.587  12.757
 1371W        W 1852   2.082   3.235  13.097
 1372W        W 1853   1.478   2.272  13.058
 1373W        W 1854   3.248   2.995  13.184
 1374W        W 1855   0.942   0.498  11.953
 1375W        W 1856   1.464   2.795  12.913
 1376W        W 1857   0.947   0.726  10.978
 1377W        W 1858   1.748   1.335  13.372
 1378W        W 1859   2.596   0.201  13.242
 1379W        W 1860   0.016   2.044  13.127
 1380W        W 1861   1.720   1.862  11.285
 1381W        W 1862   0.988   0.177  11.055
 1382W        W 1863   1.726   1.258  12.106
 1383W        W 1864   2.696   0.234  13.805
 1384W        W 1865   1.284   2.246  13.914
 1385W        W 1866   2.088   2.028  14.131
 1386W        W 1867   2.705   2.058  14.024
 1387W        W 1868   1.989   0.198  14.529
 1388W        W 1869   1.211   0.814  12.922
 1389W        W 1870   0.637   0.770  12.320
 1390W        W 1871   0.423   3.482  11.996
 1391W        W 1872   1.755   2.812  14.121
 1392W        W 1873   0.790   2.297  11.480
 1393W        W 1874   2.470   1.682  12.701
 1394W        W 1875   2.750   1.481  13.100
 1395W        W 1876   1.955   2.155  13.034
 1396W        W 1877   2.425   2.529  11.166
 1397W        W 1878   2.097   0.550  12.494
 1398W        W 1879   3.576   0.828  11.762
 1399W        W 1880   0.070   3.417  13.793
 1400W        W 1881   0.487   2.643  13.325
 1401W        W 1882   0.054   3.489  11.557
 1402W        W 1883   1.953   0.759  13.363
 1403W        W 1884   1.316   2.782  11.212
 1404W        W 1885   3.221   3.164  11.398
 1405W        W 1886   2.196   1.817  11.412
 1406W        W 1887   1.039   1.008  11.929
 1407W        W 1888   1.871   0.918  10.981
 1408W        W 1889   2.455   2.483  14.159
 1409W        W 1890   2.808   0.389  11.776
 1410W        W 1891   0.138   0.237  11.224
 1411W        W 1892   1.424   2.556  13.514
 1412W        W 1893   1.223   2.472  12.606
 1413W        W 1894   0.965   2.424  11.004
 1414W        W 1895   0.206   2.665  11.772
 1415W        W 1896   0.710   1.735  14.214
 1416W        W 1897   1.414   0.295  14.400
 1417W        W 1898   2.123   0.437  13.756
 1418W        W 1899   1.318   0.205  12.037
 1419W        W 1900   2.377   0.282  11.542
 1420W        W 1901   0.322   0.214  13.119
 1421W        W 1902   0.370   1.177  12.489
 1422W        W 1903   3.059   0.285  12.895
 1423W        W 1904   0.481   0.783  11.709
 1424W        W 1905   3.052   0.471  13.325
 1425W        W 1906   3.448   1.674  11.010
 1426W        W 1907   0.740   0.432  12.829
 1427W        W 1908   1.854   1.004  13.769
 1428W        W 1909   0.002   0.694  11.247
 1429W        W 1910   0.788   2.083  13.808
 1430W        W 1911   2.146   1.481  12.987
 1431W        W 1912   2.013   3.560  11.283
 1432W        W 1913   0.159   2.067  10.980
 1433W        W 1914   0.894   2.478  14.106
 1434W        W 1915   0.415   1.645  13.737
 1435W        W 1916   1.406   1.750  13.531
 1436W        W 1917   3.174   0.109  13.793
 1437W        W 1918   3.572   1.719  13.784
 1438W        W 1919   3.560   1.919  11.470
 1439W        W 1920   2.423   2.251  11.569
 1440W        W 1921   2.897   3.551  11.264
 1441W        W 1922   2.074   1.541  14.406
 1442W        W 1923   0.404   2.508  14.446
 1443W        W 1924   3.610   0.430  14.398
 1444W        W 1925   3.328   1.358  13.019
 1445W        W 1926   1.636   3.488  14.496
 1446W        W 1927   1.491   0.117  11.223
 1447W        W 1928   3.030   2.716  11.166
 1448W        W 1929   0.799   0.809  14.052
 1449W        W 1930   1.233   2.803  13.914
 1450W        W 1931   3.359   0.794  13.712
 1451W        W 1932   2.570   3.453  11.680
 1452W        W 1933   2.809   2.072  13.047
 1453W        W 1934   1.059   0.488  13.714
 1454W        W 1935   1.528   1.557  14.471
 1455W        W 1936   1.031   2.736  11.665
 1456W        W 1937   2.786   2.234  11.929
 1457W        W 1938   0.554   0.860  13.653
 1458W        W 1939   1.883   2.922  12.117
 1459W        W 1940   3.633   1.482  12.298
 1460W        W 1941   1.855   0.115  14.017
 1461W        W 1942   2.635   2.820  13.096
 1462W        W 1943   2.938   3.164  12.804
 1463W        W 1944   2.157   2.966  11.232
 1464W        W 1945   0.167   2.858  14.074
 1465W        W 1946   0.910   0.850  13.312
 1466W        W 1947   0.880   0.198  12.422
 1467W        W 1948   2.501   1.040  13.114
 1468W        W 1949   1.299   2.211  11.314
 1469W        W 1950   3.297   2.153  12.813
 1470W        W 1951   0.624   2.911  14.236
 1471W        W 1952   3.011   3.593  12.033
 1472W        W 1953   1.110   0.613  12.478
 1473W        W 1954   0.879   2.106  12.568
 1474W        W 1955   1.192   3.517  13.318
 1475W        W 1956   3.259   3.613  14.350
 1476W        W 1957   2.418   1.801  13.283
 1477W        W 1958   0.267   1.599  11.198
 1478W        W 1959   3.401   3.257  11.895
 1479W        W 1960   3.238   0.581  11.514
 1480W        W 1961   1.377   0.100  13.917
 1481W        W 1962   3.083   2.902  12.375
 1482W        W 1963   3.112   1.458  12.280
 1483W        W 1964   1.229   1.131  12.496
 1484W        W 1965   1.474   1.393  13.820
 1485W        W 1966   2.585   2.546  13.683
 1486W        W 1967   1.235   1.000  13.795
 1487W        W 1968   1.214   3.466  12.411
 1488W        W 1969   0.531   3.425  14.045
 1489W        W 1970   0.643   2.786  11.175
 1490W        W 1971   3.160   2.544  11.985
 1491W        W 1972   0.764   1.336  13.871
 1492W        W 1973   3.537   1.266  11.352
 1493W        W 1974   1.282   2.323  11.823
 1494W        W 1975   2.381   1.705  13.904
 1495W        W 1976   2.272   1.333  13.448
 1496W        W 1977   0.832   1.705  13.477
 1497W        W 1978   3.042   3.593  13.306
 1498W        W 1979   2.833   0.227  14.300
 1499W        W 1980   0.497   0.377  13.887
 1500W        W 1981   0.836   1.400  12.940
 1501W        W 1982   1.205   1.214  11.062
 1502W        W 1983   0.008   2.973  13.607
 1503W        W 1984   1.593   1.682  13.050
 1504W        W 1985   1.416   0.707  11.155
 1505W        W 1986   0.551   1.523  11.936
 1506W        W 1987   0.322   3.375  13.373
 1507W        W 1988   3.117   1.601  11.481
 1508W        W 1989   3.212   0.517  14.167
 1509W        W 1990   2.648   2.726  12.130
 1510W        W 1991   0.246   1.650  14.307
 1511W        W 1992   3.212   0.114  11.603
 1512W        W 1993   2.732   2.589  11.614
 1513W        W 1994   1.634   1.647  11.699
 1514W        W 1995   2.821   0.451  11.222
 1515W        W 1996   2.886   1.058  13.408
 1516W        W 1997   0.595   1.651  12.615
 1517W        W 1998   0.889   2.590  12.264
 1518W        W 1999   2.652   1.210  12.229
 1519W        W 2000   1.675   0.589  12.925
 1520W        W 2001   3.637   2.500  13.436
 1521W        W 2002   3.555   0.487  12.997
 1522W        W 2003   0.094   3.317  12.373
 1523W        W 2004   0.603   2.504  11.909
 1524W        W 2005   0.518   0.121  14.462
 1525W        W 2006   1.637   2.974  14.564
 1526W        W 2007   3.392   1.942  12.354
 1527W        W 2008   2.746   2.119  11.234
 1528W        W 2009   2.041   3.640  13.446
 1529W        W 2010   2.898   2.362  14.483
 1530W        W 2011   1.713   0.072  11.763
 1531W        W 2012   2.426   0.941  12.622
 1532W        W 2013   0.112   2.528  12.954
 1533W        W 2014   1.365   0.490  11.595
 1534W        W 2015   1.169   1.974  14.444
 1535W        W 2016   2.163   0.955  12.158
 1536W        W 2017   2.368   2.365  13.280
 1537W        W 2018   0.522   2.970  13.715
 1538W        W 2019   1.113   2.953  14.438
 1539W        W 2020   0.964   0.750  11.452
 1540W        W 2021   2.481   0.892  11.777
 1541W        W 2022   2.439   3.000  14.014
 1542W        W 2023   1.124   1.592  12.613
 1543W        W 2024   0.779   3.290  13.478
 1544W        W 2025   3.524   3.407  11.079
 1545W        W 2026   0.387   2.079  14.075
 1546W        W 2027   2.382   2.341  12.763
 1547W        W 2028   0.818   1.990  12.005
 1548W        W 2029   1.189   2.997  13.400
 1549W        W 2030   1.567   0.416  12.441
 1550W        W 2031   0.178   2.400  11.371
 1551W        W 2032   1.697   1.351  11.241
 1552W        W 2033   0.343   1.900  12.260
 1553W        W 2034   1.633   0.542  13.724
 1554W        W 2035   3.305   0.251  11.151
 1555W        W 2036   3.398   1.997  14.250
 1556W        W 2037   2.052   3.254  14.402
 1557W        W 2038   3.610   2.348  13.924
 1558W        W 2039   3.018   3.146  14.535
 1559W        W 2040   0.757   3.602  13.013
 1560W        W 2041   3.616   2.224  11.887
 1561W        W 2042   2.146   1.491  12.400
 1562W        W 2043   1.913   0.103  12.290
 1563W        W 2044   0.972   3.087  12.127
 1564W        W 2045   1.471   0.828  13.352
 1565W        W 2046   1.171   0.197  12.821
 1566W        W 2047   0.234   3.019  11.369
 1567W        W 2048   2.050   2.383  12.087
 1568W        W 2049   0.925   3.178  13.966
 1569W        W 2050   0.402   2.001  11.662
 1570W        W 2051   0.287   0.544  12.661
 1571W        W 2052   1.835   2.509  12.718
 1572W        W 2053   0.087   0.363  11.738
 1573W        W 2054   2.751   1.569  13.665
 1574W        W 2055   2.628   0.955  11.237
 1575W        W 2056   3.145   2.627  12.885
 1576W        W 2057   1.218   3.215  11.627
 1577W        W 2058   2.500   0.118  11.057
 1578W        W 2059   0.300   3.378  12.798
 1579W        W 2060   2.497   1.136  14.433
 1580W        W 2061   0.480   0.666  14.432
 1581W        W 2062   0.211   1.266  11.765
 1582W        W 2063   0.902   1.255  11.490
 1583W        W 2064   2.665   1.582  14.307
 1584W        W 2065   1.008   1.863  13.016
 1585W        W 2066   2.482   0.149  12.136
 1586W        W 2067   2.827   3.042  13.576
 1587W        W 2068   2.411   3.191  12.687
 1588W        W 2069   2.430   2.171  12.281
 1589W        W 2070   1.892   0.396  11.352
 1590W        W 2071   3.573   0.024  12.074
 1591W        W 2072   1.261   1.659  11.237
 1592W        W 2073   3.427   0.996  12.227
 1593W        W 2074   2.119   2.166  11.104
 1594W        W 2075   3.055   2.366  13.852
 1595W        W 2076   2.709   3.067  11.319
 1596W        W 2077   1.324   0.742  14.225
 1597W        W 2078   1.144   1.326  13.466
 1598W        W 2079   3.236   2.821  13.743
 1599W        W 2080   2.336   0.771  14.120
 1600W        W 2081   0.180   1.242  13.897
 1601W        W 2082   1.940   1.719  13.623
 1602W        W 2083   0.297   2.477  12.280
 1603W        W 2084   0.444   1.774  13.170
 1604W        W 2085   2.761   2.060  13.520
 1605W        W 2086   2.533   3.440  14.331
 1606W        W 2087   2.429   1.179  13.884
 1607W        W 2088   2.706   3.233  12.289
 1608W        W 2089   1.708   2.953  13.612
 1609W        W 2090   1.193   3.308  12.881
 1610W        W 2091   2.998   2.479  13.300
 1611W        W 2092   2.048   2.551  14.437
 1612W        W 2093   0.653   2.504  12.776
 1613W        W 2094   2.999   2.263  12.421
 1614W        W 2095   2.640   3.329  13.172
 1615W        W 2096   0.618   3.058  13.042
 1616W        W 2097   1.639   1.110  14.252
 1617W        W 2098   2.090   3.276  11.763
 1618W        W 2099   1.398   2.531  14.401
 1619W        W 2100   1.524   2.769  11.778
 1620W        W 2101   0.745   1.509  11.037
 1621W        W 2102   0.084   3.595  17.936
 1622W        W 2103   0.460   2.488  17.459
 1623W        W 2104   3.165   2.218  15.229
 1624W        W 2105   3.295   3.303  17.256
 1625W        W 2106   1.213   3.294  14.782
 1626W        W 2107   1.296   1.446  15.765
 1627W        W 2108   0.811   1.294  15.929
 1628W        W 2109   1.802   2.109  15.363
 1629W        W 2110   1.477   3.201  17.718
 1630W        W 2111   0.888   0.042  17.483
 1631W        W 2112   2.582   0.430  16.370
 1632W        W 2113   2.231   1.301  14.940
 1633W        W 2114   0.167   0.527  17.156
 1634W        W 2115   1.788   2.536  14.909
 1635W        W 2116   0.220   1.319  16.602
 1636W        W 2117   3.572   1.069  16.338
 1637W        W 2118   3.336   2.112  17.197
 1638W        W 2119   1.644   1.445  16.224
 1639W        W 2120   2.190   2.784  16.593
 1640W        W 2121   0.690   2.218  16.825
 1641W        W 2122   1.085   1.718  17.588
 1642W        W 2123   0.972   2.945  16.287
 1643W        W 2124   2.093   2.634  17.421
 1644W        W 2125   1.313   1.274  16.646
 1645W        W 2126   1.605   2.058  16.289
 1646W        W 2127   1.662   1.867  17.625
 1647W        W 2128   2.903   2.793  17.746
 1648W        W 2129   0.484   0.375  15.744
 1649W        W 2130   1.011   2.633  16.743
 1650W        W 2131   3.474   2.416  16.033
 1651W        W 2132   2.887   0.816  16.600
 1652W        W 2133   3.172   0.769  14.695
 1653W        W 2134   3.637   1.570  17.001
 1654W        W 2135   1.604   3.277  16.754
 1655W        W 2136   3.378   2.743  15.192
 1656W        W 2137   0.507   3.529  14.946
 1657W        W 2138   0.900   3.575  15.622
 1658W        W 2139   0.697   0.329  17.048
 1659W        W 2140   3.320   1.347  17.323
 1660W        W 2141   2.725   1.769  15.782
 1661W        W 2142   2.691   1.457  14.809
 1662W        W 2143   1.899   2.601  16.949
 1663W        W 2144   1.705   0.931  16.148
 1664W        W 2145   2.305   3.018  17.142
 1665W        W 2146   3.176   1.809  15.564
 1666W        W 2147   2.078   0.467  15.580
 1667W        W 2148   0.735   3.161  15.263
 1668W        W 2149   0.106   0.660  15.862
 1669W        W 2150   2.892   1.267  16.336
 1670W        W 2151   0.350   2.884  16.251
 1671W        W 2152   1.691   3.234  15.121
 1672W        W 2153   3.083   1.260  14.585
 1673W        W 2154   0.106   3.018  16.749
 1674W        W 2155   0.897   2.590  17.229
 1675W        W 2156   1.270   1.950  15.848
 1676W        W 2157   1.292   0.355  16.941
 1677W        W 2158   3.521   0.117  16.238
 1678W        W 2159   0.740   1.989  14.706
 1679W        W 2160   0.395   1.022  14.885
 1680W        W 2161   0.457   2.978  15.679
 1681W        W 2162   1.588   2.461  15.927
 1682W        W 2163   2.920   3.320  17.641
 1683W        W 2164   1.846   0.962  15.325
 1684W        W 2165   3.229   3.360  16.097
 1685W        W 2166   3.619   2.869  15.829
 1686W        W 2167   2.246   2.161  17.313
 1687W        W 2168   0.012   1.712  15.519
 1688W        W 2169   1.123   2.127  17.092
 1689W        W 2170   2.327   1.391  15.470
 1690W        W 2171   2.204   1.881  15.574
 1691W        W 2172   0.547   1.301  17.048
 1692W        W 2173   0.422   0.094  16.129
 1693W        W 2174   2.193   0.775  15.031
 1694W        W 2175   3.376   3.168  17.785
 1695W        W 2176   2.792   0.717  17.542
 1696W        W 2177   2.592   0.655  15.812
 1697W        W 2178   0.725   3.365  16.202
 1698W        W 2179   1.383   1.082  15.188
 1699W        W 2180   3.004   0.850  15.533
 1700W        W 2181   3.371   1.332  15.478
 1701W        W 2182   1.040   0.085  15.184
 1702W        W 2183   3.361   0.619  16.219
 1703W        W 2184   3.511   2.868  14.664
 1704W        W 2185   0.418   2.071  16.366
 1705W        W 2186   2.335   0.658  14.596
 1706W        W 2187   3.469   2.990  16.316
 1707W        W 2188   3.508   0.184  17.066
 1708W        W 2189   1.953   1.396  17.620
 1709W        W 2190   2.046   2.735  15.323
 1710W        W 2191   2.120   0.006  16.372
 1711W        W 2192   0.732   0.909  16.435
 1712W        W 2193   0.286   2.109  17.209
 1713W        W 2194   2.145   3.302  15.915
 1714W        W 2195   3.339   0.899  16.787
 1715W        W 2196   1.976   3.246  17.554
 1716W        W 2197   3.319   2.305  14.759
 1717W        W 2198   1.754   1.788  15.820
 1718W        W 2199   3.606   0.299  17.561
 1719W        W 2200   1.755   2.134  17.155
 1720W        W 2201   1.972   1.020  16.600
 1721W        W 2202   2.824   1.318  15.438
 1722W        W 2203   3.111   1.051  15.080
 1723W        W 2204   2.920   3.091  15.469
 1724W        W 2205   2.754   2.694  16.265
 1725W        W 2206   2.650   1.773  15.243
 1726W        W 2207   2.083   1.983  16.229
 1727W        W 2208   2.964   1.771  16.296
 1728W        W 2209   0.339   0.786  16.720
 1729W        W 2210   3.117   1.838  17.547
 1730W        W 2211   3.468   3.456  16.693
 1731W        W 2212   1.398   2.900  16.095
 1732W        W 2213   2.405   3.433  17.419
 1733W        W 2214   2.399   0.763  17.183
 1734W        W 2215   1.606   3.471  17.244
 1735W        W 2216   3.303   0.425  15.710
 1736W        W 2217   3.094   1.744  17.011
 1737W        W 2218   0.077   1.065  17.049
 1738W        W 2219   2.937   0.860  16.067
 1739W        W 2220   2.233   2.710  16.062
 1740W        W 2221   1.489   3.301  15.675
 1741W        W 2222   0.604   0.481  14.933
 1742W        W 2223   1.708   0.135  16.743
 1743W        W 2224   0.736   3.255  14.591
 1744W        W 2225   1.110   1.721  15.342
 1745W        W 2226   1.764   2.350  17.655
 1746W        W 2227   1.594   0.708  15.645
 1747W        W 2228   2.950   0.305  16.073
 1748W        W 2229   2.670   3.587  16.401
 1749W        W 2230   2.082   3.235  16.741
 1750W        W 2231   1.478   2.272  16.702
 1751W        W 2232   3.248   2.995  16.828
 1752W        W 2233   0.942   0.498  15.597
 1753W        W 2234   1.464   2.795  16.557
 1754W        W 2235   0.947   0.726  14.622
 1755W        W 2236   1.748   1.335  17.016
 1756W        W 2237   2.596   0.201  16.886
 1757W        W 2238   0.016   2.044  16.771
 1758W        W 2239   1.720   1.862  14.929
 1759W        W 2240   0.988   0.177  14.699
 1760W        W 2241   1.726   1.258  15.750
 1761W        W 2242   2.696   0.234  17.449
 1762W        W 2243   1.284   2.246  17.558
 1763W        W 2244   2.705   2.058  17.668
 1764W        W 2245   1.211   0.814  16.566
 1765W        W 2246   0.637   0.770  15.964
 1766W        W 2247   0.423   3.482  15.640
 1767W        W 2248   1.755   2.812  17.765
 1768W        W 2249   0.790   2.297  15.124
 1769W        W 2250   2.470   1.682  16.345
 1770W        W 2251   2.750   1.481  16.744
 1771W        W 2252   1.955   2.155  16.678
 1772W        W 2253   2.425   2.529  14.810
 1773W        W 2254   2.097   0.550  16.138
 1774W        W 2255   3.576   0.828  15.406
 1775W        W 2256   0.070   3.417  17.437
 1776W        W 2257   0.487   2.643  16.969
 1777W        W 2258   0.054   3.489  15.201
 1778W        W 2259   1.953   0.759  17.007
 1779W        W 2260   1.316   2.782  14.856
 1780W        W 2261   3.221   3.164  15.042
 1781W        W 2262   2.196   1.817  15.056
 1782W        W 2263   1.039   1.008  15.573
 1783W        W 2264   1.871   0.918  14.625
 1784W        W 2265   2.808   0.389  15.420
 1785W        W 2266   0.138   0.237  14.868
 1786W        W 2267   1.424   2.556  17.158
 1787W        W 2268   1.223   2.472  16.250
 1788W        W 2269   0.965   2.424  14.648
 1789W        W 2270   0.206   2.665  15.416
 1790W        W 2271   2.123   0.437  17.400
 1791W        W 2272   1.318   0.205  15.681
 1792W        W 2273   2.377   0.282  15.186
 1793W        W 2274   0.322   0.214  16.763
 1794W        W 2275   0.370   1.177  16.133
 1795W        W 2276   3.059   0.285  16.539
 1796W        W 2277   0.481   0.783  15.353
 1797W        W 2278   3.052   0.471  16.969
 1798W        W 2279   3.448   1.674  14.654
 1799W        W 2280   0.740   0.432  16.473
 1800W        W 2281   1.854   1.004  17.413
 1801W        W 2282   0.002   0.694  14.891
 1802W        W 2283   0.788   2.083  17.452
 1803W        W 2284   2.146   1.481  16.631
 1804W        W 2285   2.013   3.560  14.927
 1805W        W 2286   0.159   2.067  14.624
 1806W        W 2287   0.415   1.645  17.381
 1807W        W 2288   1.406   1.750  17.175
 1808W        W 2289   3.174   0.109  17.437
 1809W        W 2290   3.572   1.719  17.428
 1810W        W 2291   3.560   1.919  15.114
 1811W        W 2292   2.423   2.251  15.213
 1812W        W 2293   2.897   3.551  14.908
 1813W        W 2294   3.328   1.358  16.663
 1814W        W 2295   1.491   0.117  14.867
 1815W        W 2296   3.030   2.716  14.810
 1816W        W 2297   1.233   2.803  17.558
 1817W        W 2298   3.359   0.794  17.356
 1818W        W 2299   2.570   3.453  15.324
 1819W        W 2300   2.809   2.072  16.691
 1820W        W 2301   1.059   0.488  17.358
 1821W        W 2302   1.031   2.736  15.309
 1822W        W 2303   2.786   2.234  15.573
 1823W        W 2304   0.554   0.860  17.297
 1824W        W 2305   1.883   2.922  15.761
 1825W        W 2306   3.633   1.482  15.942
 1826W        W 2307   1.855   0.115  17.661
 1827W        W 2308   2.635   2.820  16.740
 1828W        W 2309   2.938   3.164  16.448
 1829W        W 2310   2.157   2.966  14.876
 1830W        W 2311   0.167   2.858  17.718
 1831W        W 2312   0.910   0.850  16.956
 1832W        W 2313   0.880   0.198  16.066
 1833W        W 2314   2.501   1.040  16.758
 1834W        W 2315   1.299   2.211  14.958
 1835W        W 2316   3.297   2.153  16.457
 1836W        W 2317   3.011   3.593  15.677
 1837W        W 2318   1.110   0.613  16.122
 1838W        W 2319   0.879   2.106  16.212
 1839W        W 2320   1.192   3.517  16.962
 1840W        W 2321   2.418   1.801  16.927
 1841W        W 2322   0.267   1.599  14.842
 1842W        W 2323   3.401   3.257  15.539
 1843W        W 2324   3.238   0.581  15.158
 1844W        W 2325   1.377   0.100  17.561
 1845W        W 2326   3.083   2.902  16.019
 1846W        W 2327   3.112   1.458  15.924
 1847W        W 2328   1.229   1.131  16.140
 1848W        W 2329   1.474   1.393  17.464
 1849W        W 2330   2.585   2.546  17.327
 1850W        W 2331   1.235   1.000  17.439
 1851W        W 2332   1.214   3.466  16.055
 1852W        W 2333   0.643   2.786  14.819
 1853W        W 2334   3.160   2.544  15.629
 1854W        W 2335   0.764   1.336  17.515
 1855W        W 2336   3.537   1.266  14.996
 1856W        W 2337   1.282   2.323  15.467
 1857W        W 2338   2.381   1.705  17.548
 1858W        W 2339   2.272   1.333  17.092
 1859W        W 2340   0.832   1.705  17.121
 1860W        W 2341   3.042   3.593  16.950
 1861W        W 2342   0.497   0.377  17.531
 1862W        W 2343   0.836   1.400  16.584
 1863W        W 2344   1.205   1.214  14.706
 1864W        W 2345   0.008   2.973  17.251
 1865W        W 2346   1.593   1.682  16.694
 1866W        W 2347   1.416   0.707  14.799
 1867W        W 2348   0.551   1.523  15.580
 1868W        W 2349   0.322   3.375  17.017
 1869W        W 2350   3.117   1.601  15.125
 1870W        W 2351   2.648   2.726  15.774
 1871W        W 2352   3.212   0.114  15.247
 1872W        W 2353   2.732   2.589  15.258
 1873W        W 2354   1.634   1.647  15.343
 1874W        W 2355   2.821   0.451  14.866
 1875W        W 2356   2.886   1.058  17.052
 1876W        W 2357   0.595   1.651  16.259
 1877W        W 2358   0.889   2.590  15.908
 1878W        W 2359   2.652   1.210  15.873
 1879W        W 2360   1.675   0.589  16.569
 1880W        W 2361   3.637   2.500  17.080
 1881W        W 2362   3.555   0.487  16.641
 1882W        W 2363   0.094   3.317  16.017
 1883W        W 2364   0.603   2.504  15.553
 1884W        W 2365   3.392   1.942  15.998
 1885W        W 2366   2.746   2.119  14.878
 1886W        W 2367   2.041   3.640  17.090
 1887W        W 2368   1.713   0.072  15.407
 1888W        W 2369   2.426   0.941  16.266
 1889W        W 2370   0.112   2.528  16.598
 1890W        W 2371   1.365   0.490  15.239
 1891W        W 2372   2.163   0.955  15.802
 1892W        W 2373   2.368   2.365  16.924
 1893W        W 2374   0.522   2.970  17.359
 1894W        W 2375   0.964   0.750  15.096
 1895W        W 2376   2.481   0.892  15.421
 1896W        W 2377   2.439   3.000  17.658
 1897W        W 2378   1.124   1.592  16.257
 1898W        W 2379   0.779   3.290  17.122
 1899W        W 2380   3.524   3.407  14.723
 1900W        W 2381   2.382   2.341  16.407
 1901W        W 2382   0.818   1.990  15.649
 1902W        W 2383   1.189   2.997  17.044
 1903W        W 2384   1.567   0.416  16.085
 1904W        W 2385   0.178   2.400  15.015
 1905W        W 2386   1.697   1.351  14.885
 1906W        W 2387   0.343   1.900  15.904
 1907W        W 2388   1.633   0.542  17.368
 1908W        W 2389   3.305   0.251  14.795
 1909W        W 2390   3.610   2.348  17.568
 1910W        W 2391   0.757   3.602  16.657
 1911W        W 2392   3.616   2.224  15.531
 1912W        W 2393   2.146   1.491  16.044
 1913W        W 2394   1.913   0.103  15.934
 1914W        W 2395   0.972   3.087  15.771
 1915W        W 2396   1.471   0.828  16.996
 1916W        W 2397   1.171   0.197  16.465
 1917W        W 2398   0.234   3.019  15.013
 1918W        W 2399   2.050   2.383  15.731
 1919W        W 2400   0.925   3.178  17.610
 1920W        W 2401   0.402   2.001  15.306
 1921W        W 2402   0.287   0.544  16.305
 1922W        W 2403   1.835   2.509  16.362
 1923W        W 2404   0.087   0.363  15.382
 1924W        W 2405   2.751   1.569  17.309
 1925W        W 2406   2.628   0.955  14.881
 1926W        W 2407   3.145   2.627  16.529
 1927W        W 2408   1.806   3.111  16.360
 1928W        W 2409   1.218   3.215  15.271
 1929W        W 2410   2.500   0.118  14.701
 1930W        W 2411   0.300   3.378  16.442
 1931W        W 2412   0.211   1.266  15.409
 1932W        W 2413   0.902   1.255  15.134
 1933W        W 2414   1.008   1.863  16.660
 1934W        W 2415   2.482   0.149  15.780
 1935W        W 2416   1.613   3.580  16.283
 1936W        W 2417   2.827   3.042  17.220
 1937W        W 2418   2.411   3.191  16.331
 1938W        W 2419   2.430   2.171  15.925
 1939W        W 2420   1.892   0.396  14.996
 1940W        W 2421   3.573   0.024  15.718
 1941W        W 2422   1.261   1.659  14.881
 1942W        W 2423   3.427   0.996  15.871
 1943W        W 2424   2.119   2.166  14.748
 1944W        W 2425   3.055   2.366  17.496
 1945W        W 2426   2.709   3.067  14.963
 1946W        W 2427   1.144   1.326  17.110
 1947W        W 2428   3.236   2.821  17.387
 1948W        W 2429   0.180   1.242  17.541
 1949W        W 2430   1.940   1.719  17.267
 1950W        W 2431   0.297   2.477  15.924
 1951W        W 2432   0.444   1.774  16.814
 1952W        W 2433   2.761   2.060  17.164
 1953W        W 2434   2.533   3.440  17.975
 1954W        W 2435   2.429   1.179  17.528
 1955W        W 2436   2.706   3.233  15.933
 1956W        W 2437   1.708   2.953  17.256
 1957W        W 2438   1.193   3.308  16.525
 1958W        W 2439   2.998   2.479  16.944
 1959W        W 2440   0.653   2.504  16.420
 1960W        W 2441   2.999   2.263  16.065
 1961W        W 2442   2.640   3.329  16.816
 1962W        W 2443   0.618   3.058  16.686
 1963W        W 2444   2.090   3.276  15.407
 1964W        W 2445   1.524   2.769  15.422
 1965W        W 2446   0.745   1.509  14.681
 1966W        W 2447   0.084   7.239   3.359
 1967W        W 2448   0.460   6.132   2.882
 1968W        W 2449   3.165   5.862   0.652
 1969W        W 2450   3.295   6.947   2.679
 1970W        W 2451   1.213   6.938   0.205
 1971W        W 2452   1.296   5.090   1.188
 1972W        W 2453   0.811   4.938   1.352
 1973W        W 2454   1.802   5.753   0.786
 1974W        W 2455   1.477   6.845   3.141
 1975W        W 2456   0.126   4.406   3.104
 1976W        W 2457   0.888   3.686   2.906
 1977W        W 2458   2.582   4.074   1.793
 1978W        W 2459   2.231   4.945   0.363
 1979W        W 2460   2.801   4.379   3.454
 1980W        W 2461   0.167   4.171   2.579
 1981W        W 2462   0.266   6.790   3.600
 1982W        W 2463   1.788   6.180   0.332
 1983W        W 2464   0.220   4.963   2.025
 1984W        W 2465   1.113   4.854   3.262
 1985W        W 2466   3.572   4.713   1.761
 1986W        W 2467   3.336   5.756   2.620
 1987W        W 2468   1.644   5.089   1.647
 1988W        W 2469   2.190   6.428   2.016
 1989W        W 2470   0.690   5.862   2.248
 1990W        W 2471   0.049   5.390   1.819
 1991W        W 2472   1.085   5.362   3.011
 1992W        W 2473   3.356   5.145   3.265
 1993W        W 2474   0.972   6.589   1.710
 1994W        W 2475   2.093   6.278   2.844
 1995W        W 2476   1.313   4.918   2.069
 1996W        W 2477   1.605   5.702   1.712
 1997W        W 2478   2.602   6.475   3.560
 1998W        W 2479   1.681   5.795   3.570
 1999W        W 2480   1.662   5.511   3.048
 2000W        W 2481   0.071   4.902   3.570
 2001W        W 2482   2.903   6.437   3.169
 2002W        W 2483   0.484   4.019   1.167
 2003W        W 2484   1.011   6.277   2.166
 2004W        W 2485   3.474   6.060   1.456
 2005W        W 2486   2.887   4.460   2.023
 2006W        W 2487   3.637   5.214   2.424
 2007W        W 2488   1.604   6.921   2.177
 2008W        W 2489   3.378   6.387   0.615
 2009W        W 2490   0.507   7.173   0.369
 2010W        W 2491   0.900   7.219   1.045
 2011W        W 2492   0.697   3.973   2.471
 2012W        W 2493   3.320   4.991   2.746
 2013W        W 2494   2.725   5.413   1.205
 2014W        W 2495   2.691   5.101   0.232
 2015W        W 2496   1.899   6.245   2.372
 2016W        W 2497   1.705   4.575   1.571
 2017W        W 2498   2.305   6.662   2.565
 2018W        W 2499   3.176   5.453   0.987
 2019W        W 2500   2.078   4.111   1.003
 2020W        W 2501   0.735   6.805   0.686
 2021W        W 2502   0.106   4.304   1.285
 2022W        W 2503   2.892   4.911   1.759
 2023W        W 2504   1.691   6.878   0.544
 2024W        W 2505   3.083   4.904   0.008
 2025W        W 2506   0.106   6.662   2.172
 2026W        W 2507   0.897   6.234   2.652
 2027W        W 2508   1.270   5.594   1.271
 2028W        W 2509   1.292   3.999   2.364
 2029W        W 2510   3.521   3.761   1.661
 2030W        W 2511   0.740   5.633   0.129
 2031W        W 2512   0.395   4.666   0.308
 2032W        W 2513   0.457   6.622   1.102
 2033W        W 2514   1.588   6.105   1.350
 2034W        W 2515   2.920   6.964   3.064
 2035W        W 2516   1.846   4.606   0.748
 2036W        W 2517   3.229   7.004   1.520
 2037W        W 2518   2.906   4.857   3.118
 2038W        W 2519   3.619   6.513   1.252
 2039W        W 2520   2.246   5.805   2.736
 2040W        W 2521   0.012   5.356   0.942
 2041W        W 2522   1.123   5.771   2.515
 2042W        W 2523   2.327   5.035   0.893
 2043W        W 2524   2.204   5.525   0.997
 2044W        W 2525   0.547   4.945   2.471
 2045W        W 2526   0.532   4.821   3.393
 2046W        W 2527   0.422   3.738   1.552
 2047W        W 2528   2.190   4.085   2.113
 2048W        W 2529   1.838   4.270   3.276
 2049W        W 2530   2.193   4.419   0.454
 2050W        W 2531   3.376   6.812   3.208
 2051W        W 2532   2.343   3.893   3.247
 2052W        W 2533   2.792   4.361   2.965
 2053W        W 2534   2.592   4.299   1.235
 2054W        W 2535   2.985   5.433   3.639
 2055W        W 2536   0.725   7.009   1.625
 2056W        W 2537   1.383   4.726   0.611
 2057W        W 2538   0.952   4.010   3.275
 2058W        W 2539   3.004   4.494   0.956
 2059W        W 2540   3.371   4.976   0.901
 2060W        W 2541   1.114   7.193   3.372
 2061W        W 2542   1.040   3.729   0.607
 2062W        W 2543   3.361   4.263   1.642
 2063W        W 2544   3.511   6.512   0.087
 2064W        W 2545   0.418   5.715   1.789
 2065W        W 2546   2.335   4.302   0.019
 2066W        W 2547   3.469   6.634   1.739
 2067W        W 2548   3.508   3.828   2.489
 2068W        W 2549   1.953   5.040   3.043
 2069W        W 2550   2.046   6.379   0.746
 2070W        W 2551   2.446   5.673   3.486
 2071W        W 2552   2.120   3.650   1.795
 2072W        W 2553   0.732   4.553   1.858
 2073W        W 2554   0.286   5.753   2.632
 2074W        W 2555   2.145   6.946   1.338
 2075W        W 2556   3.339   4.543   2.210
 2076W        W 2557   1.976   6.890   2.977
 2077W        W 2558   3.319   5.949   0.182
 2078W        W 2559   1.754   5.432   1.243
 2079W        W 2560   3.606   3.943   2.984
 2080W        W 2561   1.755   5.778   2.578
 2081W        W 2562   1.972   4.664   2.023
 2082W        W 2563   2.824   4.962   0.861
 2083W        W 2564   3.111   4.695   0.503
 2084W        W 2565   2.920   6.735   0.892
 2085W        W 2566   2.754   6.338   1.688
 2086W        W 2567   2.650   5.417   0.666
 2087W        W 2568   2.083   5.627   1.652
 2088W        W 2569   2.964   5.415   1.719
 2089W        W 2570   0.339   4.430   2.143
 2090W        W 2571   3.117   5.482   2.970
 2091W        W 2572   3.468   7.100   2.116
 2092W        W 2573   1.398   6.544   1.518
 2093W        W 2574   2.405   7.077   2.842
 2094W        W 2575   2.399   4.407   2.606
 2095W        W 2576   1.606   7.115   2.667
 2096W        W 2577   3.303   4.069   1.133
 2097W        W 2578   3.094   5.388   2.434
 2098W        W 2579   0.077   4.709   2.472
 2099W        W 2580   2.937   4.504   1.490
 2100W        W 2581   3.348   4.655   3.267
 2101W        W 2582   2.233   6.354   1.485
 2102W        W 2583   1.489   6.945   1.098
 2103W        W 2584   0.604   4.125   0.356
 2104W        W 2585   1.708   3.779   2.166
 2105W        W 2586   0.736   6.899   0.014
 2106W        W 2587   1.110   5.365   0.765
 2107W        W 2588   1.764   5.994   3.078
 2108W        W 2589   1.594   4.352   1.068
 2109W        W 2590   2.950   3.949   1.496
 2110W        W 2591   2.670   7.231   1.824
 2111W        W 2592   2.082   6.879   2.164
 2112W        W 2593   1.478   5.916   2.125
 2113W        W 2594   3.248   6.639   2.251
 2114W        W 2595   0.942   4.142   1.020
 2115W        W 2596   1.464   6.439   1.980
 2116W        W 2597   0.947   4.370   0.045
 2117W        W 2598   1.748   4.979   2.439
 2118W        W 2599   2.596   3.845   2.309
 2119W        W 2600   0.016   5.688   2.194
 2120W        W 2601   1.720   5.506   0.352
 2121W        W 2602   0.988   3.821   0.122
 2122W        W 2603   1.726   4.902   1.173
 2123W        W 2604   2.696   3.878   2.872
 2124W        W 2605   1.284   5.890   2.981
 2125W        W 2606   2.088   5.672   3.198
 2126W        W 2607   2.705   5.702   3.091
 2127W        W 2608   1.989   3.842   3.596
 2128W        W 2609   1.211   4.458   1.989
 2129W        W 2610   0.637   4.414   1.387
 2130W        W 2611   0.423   7.126   1.063
 2131W        W 2612   1.755   6.456   3.188
 2132W        W 2613   0.790   5.941   0.547
 2133W        W 2614   2.470   5.326   1.768
 2134W        W 2615   2.750   5.125   2.167
 2135W        W 2616   1.955   5.799   2.101
 2136W        W 2617   2.425   6.173   0.233
 2137W        W 2618   2.097   4.194   1.561
 2138W        W 2619   3.576   4.472   0.829
 2139W        W 2620   0.070   7.061   2.860
 2140W        W 2621   0.487   6.287   2.392
 2141W        W 2622   0.054   7.133   0.624
 2142W        W 2623   1.953   4.403   2.430
 2143W        W 2624   1.316   6.426   0.279
 2144W        W 2625   3.221   6.808   0.465
 2145W        W 2626   2.196   5.461   0.479
 2146W        W 2627   1.039   4.652   0.996
 2147W        W 2628   1.871   4.562   0.048
 2148W        W 2629   2.455   6.127   3.226
 2149W        W 2630   2.808   4.033   0.843
 2150W        W 2631   0.138   3.881   0.291
 2151W        W 2632   1.424   6.200   2.581
 2152W        W 2633   1.223   6.116   1.673
 2153W        W 2634   0.965   6.068   0.071
 2154W        W 2635   0.206   6.309   0.839
 2155W        W 2636   0.710   5.379   3.281
 2156W        W 2637   1.414   3.939   3.467
 2157W        W 2638   2.123   4.081   2.823
 2158W        W 2639   1.318   3.849   1.104
 2159W        W 2640   2.377   3.926   0.609
 2160W        W 2641   0.322   3.858   2.186
 2161W        W 2642   0.370   4.821   1.556
 2162W        W 2643   0.481   4.427   0.776
 2163W        W 2644   3.052   4.115   2.392
 2164W        W 2645   3.448   5.318   0.077
 2165W        W 2646   0.740   4.076   1.896
 2166W        W 2647   1.854   4.648   2.836
 2167W        W 2648   0.002   4.338   0.314
 2168W        W 2649   0.788   5.727   2.875
 2169W        W 2650   2.146   5.125   2.054
 2170W        W 2651   2.013   7.204   0.350
 2171W        W 2652   0.159   5.711   0.047
 2172W        W 2653   0.894   6.122   3.173
 2173W        W 2654   0.415   5.289   2.804
 2174W        W 2655   1.406   5.394   2.598
 2175W        W 2656   3.174   3.753   2.860
 2176W        W 2657   3.572   5.363   2.851
 2177W        W 2658   3.560   5.563   0.537
 2178W        W 2659   2.423   5.895   0.636
 2179W        W 2660   2.897   7.195   0.331
 2180W        W 2661   2.074   5.185   3.473
 2181W        W 2662   0.404   6.152   3.513
 2182W        W 2663   3.610   4.074   3.465
 2183W        W 2664   3.328   5.002   2.086
 2184W        W 2665   1.636   7.132   3.563
 2185W        W 2666   1.491   3.761   0.290
 2186W        W 2667   3.030   6.360   0.233
 2187W        W 2668   0.799   4.453   3.119
 2188W        W 2669   1.233   6.447   2.981
 2189W        W 2670   3.359   4.438   2.779
 2190W        W 2671   2.570   7.097   0.747
 2191W        W 2672   2.809   5.716   2.114
 2192W        W 2673   1.059   4.132   2.781
 2193W        W 2674   1.528   5.201   3.538
 2194W        W 2675   1.031   6.380   0.732
 2195W        W 2676   2.786   5.878   0.996
 2196W        W 2677   0.554   4.504   2.720
 2197W        W 2678   1.883   6.566   1.184
 2198W        W 2679   3.633   5.126   1.365
 2199W        W 2680   1.855   3.759   3.084
 2200W        W 2681   2.635   6.464   2.163
 2201W        W 2682   2.938   6.808   1.871
 2202W        W 2683   2.157   6.610   0.299
 2203W        W 2684   0.167   6.502   3.141
 2204W        W 2685   0.910   4.494   2.379
 2205W        W 2686   0.880   3.842   1.489
 2206W        W 2687   2.501   4.684   2.181
 2207W        W 2688   1.299   5.855   0.381
 2208W        W 2689   3.297   5.797   1.880
 2209W        W 2690   0.624   6.555   3.303
 2210W        W 2691   3.011   7.237   1.100
 2211W        W 2692   1.110   4.257   1.545
 2212W        W 2693   0.879   5.750   1.635
 2213W        W 2694   1.192   7.161   2.385
 2214W        W 2695   3.259   7.257   3.417
 2215W        W 2696   2.418   5.445   2.350
 2216W        W 2697   0.267   5.243   0.265
 2217W        W 2698   3.401   6.901   0.962
 2218W        W 2699   3.238   4.225   0.581
 2219W        W 2700   1.377   3.744   2.984
 2220W        W 2701   3.083   6.546   1.442
 2221W        W 2702   3.112   5.102   1.347
 2222W        W 2703   1.229   4.775   1.563
 2223W        W 2704   1.474   5.037   2.887
 2224W        W 2705   2.585   6.190   2.750
 2225W        W 2706   1.235   4.644   2.862
 2226W        W 2707   1.214   7.110   1.478
 2227W        W 2708   0.531   7.069   3.112
 2228W        W 2709   0.643   6.430   0.242
 2229W        W 2710   3.160   6.188   1.052
 2230W        W 2711   0.764   4.980   2.938
 2231W        W 2712   3.537   4.910   0.419
 2232W        W 2713   1.282   5.967   0.890
 2233W        W 2714   2.381   5.349   2.971
 2234W        W 2715   2.272   4.977   2.515
 2235W        W 2716   0.832   5.349   2.544
 2236W        W 2717   3.042   7.237   2.373
 2237W        W 2718   2.833   3.871   3.367
 2238W        W 2719   0.497   4.021   2.954
 2239W        W 2720   0.836   5.044   2.007
 2240W        W 2721   1.205   4.858   0.129
 2241W        W 2722   0.008   6.617   2.674
 2242W        W 2723   1.593   5.326   2.117
 2243W        W 2724   1.416   4.351   0.222
 2244W        W 2725   0.551   5.167   1.003
 2245W        W 2726   0.322   7.019   2.440
 2246W        W 2727   3.117   5.245   0.548
 2247W        W 2728   3.212   4.161   3.234
 2248W        W 2729   2.648   6.370   1.197
 2249W        W 2730   0.246   5.294   3.374
 2250W        W 2731   3.212   3.758   0.670
 2251W        W 2732   2.732   6.233   0.681
 2252W        W 2733   1.634   5.291   0.766
 2253W        W 2734   2.821   4.095   0.289
 2254W        W 2735   2.886   4.702   2.475
 2255W        W 2736   0.595   5.295   1.682
 2256W        W 2737   0.889   6.234   1.331
 2257W        W 2738   1.675   4.233   1.992
 2258W        W 2739   3.637   6.144   2.503
 2259W        W 2740   3.555   4.131   2.064
 2260W        W 2741   0.094   6.961   1.440
 2261W        W 2742   0.603   6.148   0.976
 2262W        W 2743   0.518   3.765   3.529
 2263W        W 2744   1.637   6.618   3.631
 2264W        W 2745   3.392   5.586   1.421
 2265W        W 2746   2.746   5.763   0.301
 2266W        W 2747   2.041   7.284   2.513
 2267W        W 2748   2.898   6.006   3.550
 2268W        W 2749   1.713   3.716   0.830
 2269W        W 2750   2.426   4.585   1.689
 2270W        W 2751   0.112   6.172   2.021
 2271W        W 2752   1.365   4.134   0.662
 2272W        W 2753   1.169   5.618   3.511
 2273W        W 2754   2.163   4.599   1.225
 2274W        W 2755   2.368   6.009   2.347
 2275W        W 2756   0.522   6.614   2.782
 2276W        W 2757   1.113   6.597   3.505
 2277W        W 2758   0.964   4.394   0.519
 2278W        W 2759   2.481   4.536   0.844
 2279W        W 2760   2.439   6.644   3.081
 2280W        W 2761   1.124   5.236   1.680
 2281W        W 2762   0.779   6.934   2.545
 2282W        W 2763   3.524   7.051   0.146
 2283W        W 2764   0.387   5.723   3.142
 2284W        W 2765   2.382   5.985   1.830
 2285W        W 2766   0.818   5.634   1.072
 2286W        W 2767   1.189   6.641   2.467
 2287W        W 2768   1.567   4.060   1.508
 2288W        W 2769   0.178   6.044   0.438
 2289W        W 2770   1.697   4.995   0.308
 2290W        W 2771   0.343   5.544   1.327
 2291W        W 2772   1.633   4.186   2.791
 2292W        W 2773   3.305   3.895   0.218
 2293W        W 2774   3.398   5.641   3.317
 2294W        W 2775   2.052   6.898   3.469
 2295W        W 2776   3.610   5.992   2.991
 2296W        W 2777   3.018   6.790   3.602
 2297W        W 2778   0.757   7.246   2.080
 2298W        W 2779   3.616   5.868   0.954
 2299W        W 2780   2.146   5.135   1.467
 2300W        W 2781   1.913   3.747   1.357
 2301W        W 2782   0.972   6.731   1.194
 2302W        W 2783   1.471   4.472   2.419
 2303W        W 2784   1.171   3.841   1.888
 2304W        W 2785   0.234   6.663   0.436
 2305W        W 2786   2.050   6.027   1.154
 2306W        W 2787   0.925   6.822   3.033
 2307W        W 2788   0.402   5.645   0.729
 2308W        W 2789   0.287   4.188   1.728
 2309W        W 2790   1.835   6.153   1.785
 2310W        W 2791   0.087   4.007   0.805
 2311W        W 2792   2.751   5.213   2.732
 2312W        W 2793   2.628   4.599   0.304
 2313W        W 2794   3.145   6.271   1.952
 2314W        W 2795   1.806   6.755   1.783
 2315W        W 2796   1.218   6.859   0.694
 2316W        W 2797   0.300   7.022   1.865
 2317W        W 2798   2.497   4.780   3.500
 2318W        W 2799   0.480   4.310   3.499
 2319W        W 2800   0.211   4.910   0.832
 2320W        W 2801   0.902   4.899   0.557
 2321W        W 2802   2.665   5.226   3.374
 2322W        W 2803   1.008   5.507   2.083
 2323W        W 2804   2.482   3.793   1.203
 2324W        W 2805   1.613   7.224   1.706
 2325W        W 2806   2.827   6.686   2.643
 2326W        W 2807   2.411   6.835   1.754
 2327W        W 2808   2.430   5.815   1.348
 2328W        W 2809   1.892   4.040   0.419
 2329W        W 2810   3.573   3.668   1.141
 2330W        W 2811   1.261   5.303   0.304
 2331W        W 2812   3.427   4.640   1.294
 2332W        W 2813   2.119   5.810   0.171
 2333W        W 2814   3.055   6.010   2.919
 2334W        W 2815   2.709   6.711   0.386
 2335W        W 2816   1.324   4.386   3.292
 2336W        W 2817   1.144   4.970   2.533
 2337W        W 2818   3.236   6.465   2.810
 2338W        W 2819   2.336   4.415   3.187
 2339W        W 2820   0.180   4.886   2.964
 2340W        W 2821   1.940   5.363   2.690
 2341W        W 2822   0.297   6.121   1.347
 2342W        W 2823   0.444   5.418   2.237
 2343W        W 2824   2.761   5.704   2.587
 2344W        W 2825   2.533   7.084   3.398
 2345W        W 2826   2.429   4.823   2.951
 2346W        W 2827   2.706   6.877   1.356
 2347W        W 2828   1.708   6.597   2.679
 2348W        W 2829   1.193   6.952   1.948
 2349W        W 2830   2.998   6.123   2.367
 2350W        W 2831   2.048   6.195   3.504
 2351W        W 2832   0.653   6.148   1.843
 2352W        W 2833   2.999   5.907   1.488
 2353W        W 2834   2.640   6.973   2.239
 2354W        W 2835   0.618   6.702   2.109
 2355W        W 2836   1.639   4.754   3.319
 2356W        W 2837   2.090   6.920   0.830
 2357W        W 2838   1.398   6.175   3.468
 2358W        W 2839   1.524   6.413   0.845
 2359W        W 2840   0.745   5.153   0.104
 2360W        W 2841   0.084   7.239   7.003
 2361W        W 2842   0.460   6.132   6.526
 2362W        W 2843   3.165   5.862   4.296
 2363W        W 2844   3.295   6.947   6.323
 2364W        W 2845   1.213   6.938   3.849
 2365W        W 2846   1.296   5.090   4.832
 2366W        W 2847   0.811   4.938   4.996
 2367W        W 2848   1.802   5.753   4.430
 2368W        W 2849   1.477   6.845   6.785
 2369W        W 2850   0.126   4.406   6.748
 2370W        W 2851   0.888   3.686   6.550
 2371W        W 2852   2.582   4.074   5.437
 2372W        W 2853   2.231   4.945   4.007
 2373W        W 2854   2.801   4.379   7.098
 2374W        W 2855   0.167   4.171   6.223
 2375W        W 2856   0.266   6.790   7.244
 2376W        W 2857   1.788   6.180   3.976
 2377W        W 2858   0.220   4.963   5.669
 2378W        W 2859   1.113   4.854   6.906
 2379W        W 2860   3.572   4.713   5.405
 2380W        W 2861   3.336   5.756   6.264
 2381W        W 2862   1.644   5.089   5.291
 2382W        W 2863   2.190   6.428   5.660
 2383W        W 2864   0.690   5.862   5.892
 2384W        W 2865   0.049   5.390   5.463
 2385W        W 2866   1.085   5.362   6.655
 2386W        W 2867   0.972   6.589   5.354
 2387W        W 2868   2.093   6.278   6.488
 2388W        W 2869   1.313   4.918   5.713
 2389W        W 2870   1.605   5.702   5.356
 2390W        W 2871   2.602   6.475   7.204
 2391W        W 2872   1.681   5.795   7.214
 2392W        W 2873   1.662   5.511   6.692
 2393W        W 2874   0.071   4.902   7.214
 2394W        W 2875   2.903   6.437   6.813
 2395W        W 2876   0.484   4.019   4.811
 2396W        W 2877   1.011   6.277   5.810
 2397W        W 2878   3.474   6.060   5.100
 2398W        W 2879   2.887   4.460   5.667
 2399W        W 2880   3.172   4.413   3.762
 2400W        W 2881   3.637   5.214   6.068
 2401W        W 2882   1.604   6.921   5.821
 2402W        W 2883   3.378   6.387   4.259
 2403W        W 2884   0.507   7.173   4.013
 2404W        W 2885   0.900   7.219   4.689
 2405W        W 2886   0.697   3.973   6.115
 2406W        W 2887   3.320   4.991   6.390
 2407W        W 2888   2.725   5.413   4.849
 2408W        W 2889   2.691   5.101   3.876
 2409W        W 2890   1.899   6.245   6.016
 2410W        W 2891   2.305   6.662   6.209
 2411W        W 2892   3.176   5.453   4.631
 2412W        W 2893   2.078   4.111   4.647
 2413W        W 2894   0.735   6.805   4.330
 2414W        W 2895   0.106   4.304   4.929
 2415W        W 2896   2.892   4.911   5.403
 2416W        W 2897   0.350   6.528   5.318
 2417W        W 2898   1.691   6.878   4.188
 2418W        W 2899   3.083   4.904   3.652
 2419W        W 2900   0.106   6.662   5.816
 2420W        W 2901   0.897   6.234   6.296
 2421W        W 2902   1.270   5.594   4.915
 2422W        W 2903   1.292   3.999   6.008
 2423W        W 2904   3.521   3.761   5.305
 2424W        W 2905   0.740   5.633   3.773
 2425W        W 2906   0.395   4.666   3.952
 2426W        W 2907   0.457   6.622   4.746
 2427W        W 2908   1.588   6.105   4.994
 2428W        W 2909   2.920   6.964   6.708
 2429W        W 2910   1.846   4.606   4.392
 2430W        W 2911   3.229   7.004   5.164
 2431W        W 2912   2.906   4.857   6.762
 2432W        W 2913   3.619   6.513   4.896
 2433W        W 2914   2.246   5.805   6.380
 2434W        W 2915   0.012   5.356   4.586
 2435W        W 2916   1.123   5.771   6.159
 2436W        W 2917   2.327   5.035   4.537
 2437W        W 2918   2.204   5.525   4.641
 2438W        W 2919   0.547   4.945   6.115
 2439W        W 2920   0.532   4.821   7.037
 2440W        W 2921   0.422   3.738   5.196
 2441W        W 2922   2.190   4.085   5.757
 2442W        W 2923   1.838   4.270   6.920
 2443W        W 2924   2.193   4.419   4.098
 2444W        W 2925   3.376   6.812   6.852
 2445W        W 2926   2.343   3.893   6.891
 2446W        W 2927   3.362   6.194   7.013
 2447W        W 2928   2.792   4.361   6.609
 2448W        W 2929   2.592   4.299   4.879
 2449W        W 2930   2.985   5.433   7.283
 2450W        W 2931   0.725   7.009   5.269
 2451W        W 2932   1.383   4.726   4.255
 2452W        W 2933   0.952   4.010   6.919
 2453W        W 2934   3.004   4.494   4.600
 2454W        W 2935   3.371   4.976   4.545
 2455W        W 2936   1.114   7.193   7.016
 2456W        W 2937   1.040   3.729   4.251
 2457W        W 2938   3.361   4.263   5.286
 2458W        W 2939   3.511   6.512   3.731
 2459W        W 2940   0.418   5.715   5.433
 2460W        W 2941   2.335   4.302   3.663
 2461W        W 2942   3.469   6.634   5.383
 2462W        W 2943   3.508   3.828   6.133
 2463W        W 2944   1.953   5.040   6.687
 2464W        W 2945   2.046   6.379   4.390
 2465W        W 2946   2.446   5.673   7.130
 2466W        W 2947   2.120   3.650   5.439
 2467W        W 2948   0.732   4.553   5.502
 2468W        W 2949   0.286   5.753   6.276
 2469W        W 2950   2.145   6.946   4.982
 2470W        W 2951   3.339   4.543   5.854
 2471W        W 2952   1.976   6.890   6.621
 2472W        W 2953   3.319   5.949   3.826
 2473W        W 2954   1.754   5.432   4.887
 2474W        W 2955   3.606   3.943   6.628
 2475W        W 2956   1.755   5.778   6.222
 2476W        W 2957   1.972   4.664   5.667
 2477W        W 2958   2.824   4.962   4.505
 2478W        W 2959   3.111   4.695   4.147
 2479W        W 2960   2.920   6.735   4.536
 2480W        W 2961   2.754   6.338   5.332
 2481W        W 2962   2.650   5.417   4.310
 2482W        W 2963   2.083   5.627   5.296
 2483W        W 2964   2.964   5.415   5.363
 2484W        W 2965   0.339   4.430   5.787
 2485W        W 2966   3.117   5.482   6.614
 2486W        W 2967   3.468   7.100   5.760
 2487W        W 2968   1.398   6.544   5.162
 2488W        W 2969   2.405   7.077   6.486
 2489W        W 2970   2.399   4.407   6.250
 2490W        W 2971   1.606   7.115   6.311
 2491W        W 2972   3.303   4.069   4.777
 2492W        W 2973   3.094   5.388   6.078
 2493W        W 2974   0.077   4.709   6.116
 2494W        W 2975   2.937   4.504   5.134
 2495W        W 2976   3.348   4.655   6.911
 2496W        W 2977   2.233   6.354   5.129
 2497W        W 2978   1.489   6.945   4.742
 2498W        W 2979   1.708   3.779   5.810
 2499W        W 2980   0.736   6.899   3.658
 2500W        W 2981   1.110   5.365   4.409
 2501W        W 2982   1.764   5.994   6.722
 2502W        W 2983   1.594   4.352   4.712
 2503W        W 2984   2.950   3.949   5.140
 2504W        W 2985   2.670   7.231   5.468
 2505W        W 2986   2.082   6.879   5.808
 2506W        W 2987   1.478   5.916   5.769
 2507W        W 2988   3.248   6.639   5.895
 2508W        W 2989   0.942   4.142   4.664
 2509W        W 2990   1.464   6.439   5.624
 2510W        W 2991   0.947   4.370   3.689
 2511W        W 2992   1.748   4.979   6.083
 2512W        W 2993   2.596   3.845   5.953
 2513W        W 2994   0.016   5.688   5.838
 2514W        W 2995   1.720   5.506   3.996
 2515W        W 2996   0.988   3.821   3.766
 2516W        W 2997   1.726   4.902   4.817
 2517W        W 2998   2.696   3.878   6.516
 2518W        W 2999   1.284   5.890   6.625
 2519W        W 3000   2.088   5.672   6.842
 2520W        W 3001   2.705   5.702   6.735
 2521W        W 3002   1.989   3.842   7.240
 2522W        W 3003   1.211   4.458   5.633
 2523W        W 3004   0.637   4.414   5.031
 2524W        W 3005   0.423   7.126   4.707
 2525W        W 3006   1.755   6.456   6.832
 2526W        W 3007   0.790   5.941   4.191
 2527W        W 3008   2.470   5.326   5.412
 2528W        W 3009   2.750   5.125   5.811
 2529W        W 3010   1.955   5.799   5.745
 2530W        W 3011   2.425   6.173   3.877
 2531W        W 3012   2.097   4.194   5.205
 2532W        W 3013   3.576   4.472   4.473
 2533W        W 3014   0.070   7.061   6.504
 2534W        W 3015   0.487   6.287   6.036
 2535W        W 3016   0.054   7.133   4.268
 2536W        W 3017   1.953   4.403   6.074
 2537W        W 3018   1.316   6.426   3.923
 2538W        W 3019   3.221   6.808   4.109
 2539W        W 3020   2.196   5.461   4.123
 2540W        W 3021   1.039   4.652   4.640
 2541W        W 3022   1.871   4.562   3.692
 2542W        W 3023   2.455   6.127   6.870
 2543W        W 3024   2.808   4.033   4.487
 2544W        W 3025   0.138   3.881   3.935
 2545W        W 3026   1.424   6.200   6.225
 2546W        W 3027   1.223   6.116   5.317
 2547W        W 3028   0.965   6.068   3.715
 2548W        W 3029   0.206   6.309   4.483
 2549W        W 3030   0.710   5.379   6.925
 2550W        W 3031   1.414   3.939   7.111
 2551W        W 3032   2.123   4.081   6.467
 2552W        W 3033   1.318   3.849   4.748
 2553W        W 3034   2.377   3.926   4.253
 2554W        W 3035   0.322   3.858   5.830
 2555W        W 3036   0.370   4.821   5.200
 2556W        W 3037   3.059   3.929   5.606
 2557W        W 3038   0.481   4.427   4.420
 2558W        W 3039   3.052   4.115   6.036
 2559W        W 3040   3.448   5.318   3.721
 2560W        W 3041   0.740   4.076   5.540
 2561W        W 3042   1.854   4.648   6.480
 2562W        W 3043   0.002   4.338   3.958
 2563W        W 3044   0.788   5.727   6.519
 2564W        W 3045   2.146   5.125   5.698
 2565W        W 3046   2.013   7.204   3.994
 2566W        W 3047   0.159   5.711   3.691
 2567W        W 3048   0.894   6.122   6.817
 2568W        W 3049   0.415   5.289   6.448
 2569W        W 3050   1.406   5.394   6.242
 2570W        W 3051   3.174   3.753   6.504
 2571W        W 3052   3.572   5.363   6.495
 2572W        W 3053   3.560   5.563   4.181
 2573W        W 3054   2.423   5.895   4.280
 2574W        W 3055   2.897   7.195   3.975
 2575W        W 3056   2.074   5.185   7.117
 2576W        W 3057   0.404   6.152   7.157
 2577W        W 3058   3.610   4.074   7.109
 2578W        W 3059   3.328   5.002   5.730
 2579W        W 3060   1.636   7.132   7.207
 2580W        W 3061   1.491   3.761   3.934
 2581W        W 3062   3.030   6.360   3.877
 2582W        W 3063   1.233   6.447   6.625
 2583W        W 3064   3.359   4.438   6.423
 2584W        W 3065   2.570   7.097   4.391
 2585W        W 3066   2.809   5.716   5.758
 2586W        W 3067   1.059   4.132   6.425
 2587W        W 3068   1.528   5.201   7.182
 2588W        W 3069   1.031   6.380   4.376
 2589W        W 3070   2.786   5.878   4.640
 2590W        W 3071   0.554   4.504   6.364
 2591W        W 3072   1.883   6.566   4.828
 2592W        W 3073   3.633   5.126   5.009
 2593W        W 3074   1.855   3.759   6.728
 2594W        W 3075   2.635   6.464   5.807
 2595W        W 3076   2.938   6.808   5.515
 2596W        W 3077   2.157   6.610   3.943
 2597W        W 3078   0.167   6.502   6.785
 2598W        W 3079   0.910   4.494   6.023
 2599W        W 3080   0.880   3.842   5.133
 2600W        W 3081   2.501   4.684   5.825
 2601W        W 3082   1.299   5.855   4.025
 2602W        W 3083   3.297   5.797   5.524
 2603W        W 3084   0.624   6.555   6.947
 2604W        W 3085   3.011   7.237   4.744
 2605W        W 3086   1.110   4.257   5.189
 2606W        W 3087   0.879   5.750   5.279
 2607W        W 3088   1.192   7.161   6.029
 2608W        W 3089   3.259   7.257   7.061
 2609W        W 3090   2.418   5.445   5.994
 2610W        W 3091   0.267   5.243   3.909
 2611W        W 3092   3.401   6.901   4.606
 2612W        W 3093   3.238   4.225   4.225
 2613W        W 3094   3.083   6.546   5.086
 2614W        W 3095   3.112   5.102   4.991
 2615W        W 3096   1.229   4.775   5.207
 2616W        W 3097   1.474   5.037   6.531
 2617W        W 3098   2.585   6.190   6.394
 2618W        W 3099   1.235   4.644   6.506
 2619W        W 3100   1.214   7.110   5.122
 2620W        W 3101   0.531   7.069   6.756
 2621W        W 3102   0.643   6.430   3.886
 2622W        W 3103   3.160   6.188   4.696
 2623W        W 3104   0.764   4.980   6.582
 2624W        W 3105   3.537   4.910   4.063
 2625W        W 3106   1.282   5.967   4.534
 2626W        W 3107   2.381   5.349   6.615
 2627W        W 3108   2.272   4.977   6.159
 2628W        W 3109   0.832   5.349   6.188
 2629W        W 3110   3.042   7.237   6.017
 2630W        W 3111   2.833   3.871   7.011
 2631W        W 3112   0.497   4.021   6.598
 2632W        W 3113   0.836   5.044   5.651
 2633W        W 3114   1.205   4.858   3.773
 2634W        W 3115   0.008   6.617   6.318
 2635W        W 3116   1.593   5.326   5.761
 2636W        W 3117   1.416   4.351   3.866
 2637W        W 3118   0.551   5.167   4.647
 2638W        W 3119   0.322   7.019   6.084
 2639W        W 3120   3.117   5.245   4.192
 2640W        W 3121   3.212   4.161   6.878
 2641W        W 3122   2.648   6.370   4.841
 2642W        W 3123   0.246   5.294   7.018
 2643W        W 3124   3.212   3.758   4.314
 2644W        W 3125   2.732   6.233   4.325
 2645W        W 3126   1.634   5.291   4.410
 2646W        W 3127   2.821   4.095   3.933
 2647W        W 3128   2.886   4.702   6.119
 2648W        W 3129   0.595   5.295   5.326
 2649W        W 3130   0.889   6.234   4.975
 2650W        W 3131   2.652   4.854   4.940
 2651W        W 3132   1.675   4.233   5.636
 2652W        W 3133   3.637   6.144   6.147
 2653W        W 3134   3.555   4.131   5.708
 2654W        W 3135   0.094   6.961   5.084
 2655W        W 3136   0.603   6.148   4.620
 2656W        W 3137   0.518   3.765   7.173
 2657W        W 3138   1.637   6.618   7.275
 2658W        W 3139   3.392   5.586   5.065
 2659W        W 3140   2.746   5.763   3.945
 2660W        W 3141   2.041   7.284   6.157
 2661W        W 3142   2.898   6.006   7.194
 2662W        W 3143   1.713   3.716   4.474
 2663W        W 3144   2.426   4.585   5.333
 2664W        W 3145   0.112   6.172   5.665
 2665W        W 3146   1.365   4.134   4.306
 2666W        W 3147   1.169   5.618   7.155
 2667W        W 3148   2.163   4.599   4.869
 2668W        W 3149   2.368   6.009   5.991
 2669W        W 3150   0.522   6.614   6.426
 2670W        W 3151   1.113   6.597   7.149
 2671W        W 3152   0.964   4.394   4.163
 2672W        W 3153   2.481   4.536   4.488
 2673W        W 3154   2.439   6.644   6.725
 2674W        W 3155   1.124   5.236   5.324
 2675W        W 3156   0.779   6.934   6.189
 2676W        W 3157   3.524   7.051   3.790
 2677W        W 3158   0.387   5.723   6.786
 2678W        W 3159   2.382   5.985   5.474
 2679W        W 3160   0.818   5.634   4.716
 2680W        W 3161   1.189   6.641   6.111
 2681W        W 3162   1.567   4.060   5.152
 2682W        W 3163   0.178   6.044   4.082
 2683W        W 3164   1.697   4.995   3.952
 2684W        W 3165   0.343   5.544   4.971
 2685W        W 3166   1.633   4.186   6.435
 2686W        W 3167   3.305   3.895   3.862
 2687W        W 3168   3.398   5.641   6.961
 2688W        W 3169   2.052   6.898   7.113
 2689W        W 3170   3.610   5.992   6.635
 2690W        W 3171   3.018   6.790   7.246
 2691W        W 3172   0.757   7.246   5.724
 2692W        W 3173   3.616   5.868   4.598
 2693W        W 3174   2.146   5.135   5.111
 2694W        W 3175   1.913   3.747   5.001
 2695W        W 3176   0.972   6.731   4.838
 2696W        W 3177   1.471   4.472   6.063
 2697W        W 3178   1.171   3.841   5.532
 2698W        W 3179   0.234   6.663   4.080
 2699W        W 3180   2.050   6.027   4.798
 2700W        W 3181   0.925   6.822   6.677
 2701W        W 3182   0.402   5.645   4.373
 2702W        W 3183   0.287   4.188   5.372
 2703W        W 3184   1.835   6.153   5.429
 2704W        W 3185   0.087   4.007   4.449
 2705W        W 3186   2.751   5.213   6.376
 2706W        W 3187   2.628   4.599   3.948
 2707W        W 3188   3.145   6.271   5.596
 2708W        W 3189   1.806   6.755   5.427
 2709W        W 3190   1.218   6.859   4.338
 2710W        W 3191   2.500   3.762   3.768
 2711W        W 3192   0.300   7.022   5.509
 2712W        W 3193   2.497   4.780   7.144
 2713W        W 3194   0.480   4.310   7.143
 2714W        W 3195   0.211   4.910   4.476
 2715W        W 3196   0.902   4.899   4.201
 2716W        W 3197   2.665   5.226   7.018
 2717W        W 3198   1.008   5.507   5.727
 2718W        W 3199   2.482   3.793   4.847
 2719W        W 3200   1.613   7.224   5.350
 2720W        W 3201   2.827   6.686   6.287
 2721W        W 3202   2.411   6.835   5.398
 2722W        W 3203   2.430   5.815   4.992
 2723W        W 3204   1.892   4.040   4.063
 2724W        W 3205   3.573   3.668   4.785
 2725W        W 3206   1.261   5.303   3.948
 2726W        W 3207   3.427   4.640   4.938
 2727W        W 3208   2.119   5.810   3.815
 2728W        W 3209   3.055   6.010   6.563
 2729W        W 3210   2.709   6.711   4.030
 2730W        W 3211   1.324   4.386   6.936
 2731W        W 3212   1.144   4.970   6.177
 2732W        W 3213   3.236   6.465   6.454
 2733W        W 3214   2.336   4.415   6.831
 2734W        W 3215   0.180   4.886   6.608
 2735W        W 3216   1.940   5.363   6.334
 2736W        W 3217   0.297   6.121   4.991
 2737W        W 3218   0.444   5.418   5.881
 2738W        W 3219   2.761   5.704   6.231
 2739W        W 3220   2.533   7.084   7.042
 2740W        W 3221   2.429   4.823   6.595
 2741W        W 3222   2.706   6.877   5.000
 2742W        W 3223   1.193   6.952   5.592
 2743W        W 3224   2.998   6.123   6.011
 2744W        W 3225   2.048   6.195   7.148
 2745W        W 3226   0.653   6.148   5.487
 2746W        W 3227   2.999   5.907   5.132
 2747W        W 3228   2.640   6.973   5.883
 2748W        W 3229   0.618   6.702   5.753
 2749W        W 3230   1.639   4.754   6.963
 2750W        W 3231   2.090   6.920   4.474
 2751W        W 3232   1.398   6.175   7.112
 2752W        W 3233   1.524   6.413   4.489
 2753W        W 3234   0.745   5.153   3.748
 2754W        W 3235   0.084   7.239  10.648
 2755W        W 3236   0.460   6.132  10.171
 2756W        W 3237   3.165   5.862   7.941
 2757W        W 3238   3.295   6.947   9.968
 2758W        W 3239   1.213   6.938   7.494
 2759W        W 3240   1.296   5.090   8.477
 2760W        W 3241   0.811   4.938   8.641
 2761W        W 3242   1.802   5.753   8.075
 2762W        W 3243   1.477   6.845  10.430
 2763W        W 3244   0.888   3.686  10.195
 2764W        W 3245   2.582   4.074   9.082
 2765W        W 3246   2.231   4.945   7.652
 2766W        W 3247   2.801   4.379  10.743
 2767W        W 3248   0.167   4.171   9.868
 2768W        W 3249   0.266   6.790  10.889
 2769W        W 3250   1.788   6.180   7.621
 2770W        W 3251   0.220   4.963   9.314
 2771W        W 3252   1.113   4.854  10.551
 2772W        W 3253   3.572   4.713   9.050
 2773W        W 3254   3.336   5.756   9.909
 2774W        W 3255   1.644   5.089   8.936
 2775W        W 3256   2.190   6.428   9.305
 2776W        W 3257   0.690   5.862   9.537
 2777W        W 3258   0.049   5.390   9.108
 2778W        W 3259   1.085   5.362  10.300
 2779W        W 3260   3.356   5.145  10.554
 2780W        W 3261   0.972   6.589   8.999
 2781W        W 3262   2.093   6.278  10.133
 2782W        W 3263   1.313   4.918   9.358
 2783W        W 3264   1.605   5.702   9.001
 2784W        W 3265   2.602   6.475  10.849
 2785W        W 3266   1.681   5.795  10.859
 2786W        W 3267   1.662   5.511  10.337
 2787W        W 3268   0.071   4.902  10.859
 2788W        W 3269   2.903   6.437  10.458
 2789W        W 3270   0.484   4.019   8.456
 2790W        W 3271   1.011   6.277   9.455
 2791W        W 3272   3.474   6.060   8.745
 2792W        W 3273   2.887   4.460   9.312
 2793W        W 3274   3.172   4.413   7.407
 2794W        W 3275   3.637   5.214   9.713
 2795W        W 3276   1.604   6.921   9.466
 2796W        W 3277   3.378   6.387   7.904
 2797W        W 3278   0.507   7.173   7.658
 2798W        W 3279   0.900   7.219   8.334
 2799W        W 3280   0.697   3.973   9.760
 2800W        W 3281   3.320   4.991  10.035
 2801W        W 3282   2.725   5.413   8.494
 2802W        W 3283   2.691   5.101   7.521
 2803W        W 3284   1.899   6.245   9.661
 2804W        W 3285   1.705   4.575   8.860
 2805W        W 3286   2.305   6.662   9.854
 2806W        W 3287   3.176   5.453   8.276
 2807W        W 3288   2.078   4.111   8.292
 2808W        W 3289   0.735   6.805   7.975
 2809W        W 3290   0.106   4.304   8.574
 2810W        W 3291   2.892   4.911   9.048
 2811W        W 3292   0.350   6.528   8.963
 2812W        W 3293   1.691   6.878   7.833
 2813W        W 3294   3.083   4.904   7.297
 2814W        W 3295   0.106   6.662   9.461
 2815W        W 3296   0.897   6.234   9.941
 2816W        W 3297   1.270   5.594   8.560
 2817W        W 3298   1.292   3.999   9.653
 2818W        W 3299   3.521   3.761   8.950
 2819W        W 3300   0.740   5.633   7.418
 2820W        W 3301   0.395   4.666   7.597
 2821W        W 3302   0.457   6.622   8.391
 2822W        W 3303   1.588   6.105   8.639
 2823W        W 3304   2.920   6.964  10.353
 2824W        W 3305   1.846   4.606   8.037
 2825W        W 3306   3.229   7.004   8.809
 2826W        W 3307   2.906   4.857  10.407
 2827W        W 3308   3.619   6.513   8.541
 2828W        W 3309   2.246   5.805  10.025
 2829W        W 3310   0.012   5.356   8.231
 2830W        W 3311   1.123   5.771   9.804
 2831W        W 3312   2.327   5.035   8.182
 2832W        W 3313   2.204   5.525   8.286
 2833W        W 3314   0.547   4.945   9.760
 2834W        W 3315   0.532   4.821  10.682
 2835W        W 3316   0.422   3.738   8.841
 2836W        W 3317   2.190   4.085   9.402
 2837W        W 3318   1.838   4.270  10.565
 2838W        W 3319   2.193   4.419   7.743
 2839W        W 3320   3.376   6.812  10.497
 2840W        W 3321   2.343   3.893  10.536
 2841W        W 3322   3.362   6.194  10.658
 2842W        W 3323   2.792   4.361  10.254
 2843W        W 3324   2.592   4.299   8.524
 2844W        W 3325   2.985   5.433  10.928
 2845W        W 3326   0.725   7.009   8.914
 2846W        W 3327   1.383   4.726   7.900
 2847W        W 3328   0.952   4.010  10.564
 2848W        W 3329   3.371   4.976   8.190
 2849W        W 3330   1.114   7.193  10.661
 2850W        W 3331   1.040   3.729   7.896
 2851W        W 3332   3.361   4.263   8.931
 2852W        W 3333   3.511   6.512   7.376
 2853W        W 3334   0.418   5.715   9.078
 2854W        W 3335   2.335   4.302   7.308
 2855W        W 3336   3.469   6.634   9.028
 2856W        W 3337   3.508   3.828   9.778
 2857W        W 3338   1.953   5.040  10.332
 2858W        W 3339   2.046   6.379   8.035
 2859W        W 3340   2.446   5.673  10.775
 2860W        W 3341   2.120   3.650   9.084
 2861W        W 3342   0.286   5.753   9.921
 2862W        W 3343   2.145   6.946   8.627
 2863W        W 3344   3.339   4.543   9.499
 2864W        W 3345   1.976   6.890  10.266
 2865W        W 3346   3.319   5.949   7.471
 2866W        W 3347   1.754   5.432   8.532
 2867W        W 3348   3.606   3.943  10.273
 2868W        W 3349   1.755   5.778   9.867
 2869W        W 3350   1.972   4.664   9.312
 2870W        W 3351   2.824   4.962   8.150
 2871W        W 3352   3.111   4.695   7.792
 2872W        W 3353   2.920   6.735   8.181
 2873W        W 3354   2.754   6.338   8.977
 2874W        W 3355   2.650   5.417   7.955
 2875W        W 3356   2.083   5.627   8.941
 2876W        W 3357   2.964   5.415   9.008
 2877W        W 3358   0.339   4.430   9.432
 2878W        W 3359   3.117   5.482  10.259
 2879W        W 3360   3.468   7.100   9.405
 2880W        W 3361   1.398   6.544   8.807
 2881W        W 3362   2.405   7.077  10.131
 2882W        W 3363   2.399   4.407   9.895
 2883W        W 3364   1.606   7.115   9.956
 2884W        W 3365   3.303   4.069   8.422
 2885W        W 3366   3.094   5.388   9.723
 2886W        W 3367   0.077   4.709   9.761
 2887W        W 3368   2.937   4.504   8.779
 2888W        W 3369   3.348   4.655  10.556
 2889W        W 3370   2.233   6.354   8.774
 2890W        W 3371   1.489   6.945   8.387
 2891W        W 3372   0.604   4.125   7.645
 2892W        W 3373   1.708   3.779   9.455
 2893W        W 3374   0.736   6.899   7.303
 2894W        W 3375   1.110   5.365   8.054
 2895W        W 3376   1.764   5.994  10.367
 2896W        W 3377   1.594   4.352   8.357
 2897W        W 3378   2.950   3.949   8.785
 2898W        W 3379   2.670   7.231   9.113
 2899W        W 3380   2.082   6.879   9.453
 2900W        W 3381   1.478   5.916   9.414
 2901W        W 3382   3.248   6.639   9.540
 2902W        W 3383   0.942   4.142   8.309
 2903W        W 3384   1.464   6.439   9.269
 2904W        W 3385   0.947   4.370   7.334
 2905W        W 3386   1.748   4.979   9.728
 2906W        W 3387   2.596   3.845   9.598
 2907W        W 3388   0.016   5.688   9.483
 2908W        W 3389   1.720   5.506   7.641
 2909W        W 3390   0.988   3.821   7.411
 2910W        W 3391   1.726   4.902   8.462
 2911W        W 3392   2.696   3.878  10.161
 2912W        W 3393   1.284   5.890  10.270
 2913W        W 3394   2.088   5.672  10.487
 2914W        W 3395   2.705   5.702  10.380
 2915W        W 3396   1.989   3.842  10.885
 2916W        W 3397   1.211   4.458   9.278
 2917W        W 3398   0.637   4.414   8.676
 2918W        W 3399   0.423   7.126   8.352
 2919W        W 3400   1.755   6.456  10.477
 2920W        W 3401   0.790   5.941   7.836
 2921W        W 3402   2.470   5.326   9.057
 2922W        W 3403   2.750   5.125   9.456
 2923W        W 3404   1.955   5.799   9.390
 2924W        W 3405   2.425   6.173   7.522
 2925W        W 3406   2.097   4.194   8.850
 2926W        W 3407   3.576   4.472   8.118
 2927W        W 3408   0.070   7.061  10.149
 2928W        W 3409   0.487   6.287   9.681
 2929W        W 3410   0.054   7.133   7.913
 2930W        W 3411   1.953   4.403   9.719
 2931W        W 3412   1.316   6.426   7.568
 2932W        W 3413   3.221   6.808   7.754
 2933W        W 3414   2.196   5.461   7.768
 2934W        W 3415   1.039   4.652   8.285
 2935W        W 3416   1.871   4.562   7.337
 2936W        W 3417   2.455   6.127  10.515
 2937W        W 3418   2.808   4.033   8.132
 2938W        W 3419   0.138   3.881   7.580
 2939W        W 3420   1.424   6.200   9.870
 2940W        W 3421   1.223   6.116   8.962
 2941W        W 3422   0.965   6.068   7.360
 2942W        W 3423   0.206   6.309   8.128
 2943W        W 3424   0.710   5.379  10.570
 2944W        W 3425   1.414   3.939  10.756
 2945W        W 3426   2.123   4.081  10.112
 2946W        W 3427   1.318   3.849   8.393
 2947W        W 3428   2.377   3.926   7.898
 2948W        W 3429   0.322   3.858   9.475
 2949W        W 3430   0.370   4.821   8.845
 2950W        W 3431   3.059   3.929   9.251
 2951W        W 3432   0.481   4.427   8.065
 2952W        W 3433   3.052   4.115   9.681
 2953W        W 3434   3.448   5.318   7.366
 2954W        W 3435   0.740   4.076   9.185
 2955W        W 3436   1.854   4.648  10.125
 2956W        W 3437   0.002   4.338   7.603
 2957W        W 3438   0.788   5.727  10.164
 2958W        W 3439   2.146   5.125   9.343
 2959W        W 3440   2.013   7.204   7.639
 2960W        W 3441   0.159   5.711   7.336
 2961W        W 3442   0.894   6.122  10.462
 2962W        W 3443   0.415   5.289  10.093
 2963W        W 3444   1.406   5.394   9.887
 2964W        W 3445   3.174   3.753  10.149
 2965W        W 3446   3.572   5.363  10.140
 2966W        W 3447   3.560   5.563   7.826
 2967W        W 3448   2.423   5.895   7.925
 2968W        W 3449   2.897   7.195   7.620
 2969W        W 3450   2.074   5.185  10.762
 2970W        W 3451   0.404   6.152  10.802
 2971W        W 3452   3.610   4.074  10.754
 2972W        W 3453   3.328   5.002   9.375
 2973W        W 3454   1.636   7.132  10.852
 2974W        W 3455   1.491   3.761   7.579
 2975W        W 3456   3.030   6.360   7.522
 2976W        W 3457   1.233   6.447  10.270
 2977W        W 3458   3.359   4.438  10.068
 2978W        W 3459   2.570   7.097   8.036
 2979W        W 3460   2.809   5.716   9.403
 2980W        W 3461   1.059   4.132  10.070
 2981W        W 3462   1.528   5.201  10.827
 2982W        W 3463   1.031   6.380   8.021
 2983W        W 3464   2.786   5.878   8.285
 2984W        W 3465   0.554   4.504  10.009
 2985W        W 3466   1.883   6.566   8.473
 2986W        W 3467   3.633   5.126   8.654
 2987W        W 3468   1.855   3.759  10.373
 2988W        W 3469   2.635   6.464   9.452
 2989W        W 3470   2.938   6.808   9.160
 2990W        W 3471   2.157   6.610   7.588
 2991W        W 3472   0.167   6.502  10.430
 2992W        W 3473   0.910   4.494   9.668
 2993W        W 3474   0.880   3.842   8.778
 2994W        W 3475   2.501   4.684   9.470
 2995W        W 3476   1.299   5.855   7.670
 2996W        W 3477   3.297   5.797   9.169
 2997W        W 3478   0.624   6.555  10.592
 2998W        W 3479   3.011   7.237   8.389
 2999W        W 3480   1.110   4.257   8.834
 3000W        W 3481   0.879   5.750   8.924
 3001W        W 3482   1.192   7.161   9.674
 3002W        W 3483   3.259   7.257  10.706
 3003W        W 3484   2.418   5.445   9.639
 3004W        W 3485   0.267   5.243   7.554
 3005W        W 3486   3.401   6.901   8.251
 3006W        W 3487   3.238   4.225   7.870
 3007W        W 3488   1.377   3.744  10.273
 3008W        W 3489   3.083   6.546   8.731
 3009W        W 3490   3.112   5.102   8.636
 3010W        W 3491   1.229   4.775   8.852
 3011W        W 3492   1.474   5.037  10.176
 3012W        W 3493   2.585   6.190  10.039
 3013W        W 3494   1.235   4.644  10.151
 3014W        W 3495   1.214   7.110   8.767
 3015W        W 3496   0.531   7.069  10.401
 3016W        W 3497   0.643   6.430   7.531
 3017W        W 3498   3.160   6.188   8.341
 3018W        W 3499   0.764   4.980  10.227
 3019W        W 3500   3.537   4.910   7.708
 3020W        W 3501   1.282   5.967   8.179
 3021W        W 3502   2.381   5.349  10.260
 3022W        W 3503   2.272   4.977   9.804
 3023W        W 3504   0.832   5.349   9.833
 3024W        W 3505   3.042   7.237   9.662
 3025W        W 3506   2.833   3.871  10.656
 3026W        W 3507   0.497   4.021  10.243
 3027W        W 3508   0.836   5.044   9.296
 3028W        W 3509   1.205   4.858   7.418
 3029W        W 3510   0.008   6.617   9.963
 3030W        W 3511   1.593   5.326   9.406
 3031W        W 3512   1.416   4.351   7.511
 3032W        W 3513   0.551   5.167   8.292
 3033W        W 3514   0.322   7.019   9.729
 3034W        W 3515   3.117   5.245   7.837
 3035W        W 3516   2.648   6.370   8.486
 3036W        W 3517   0.246   5.294  10.663
 3037W        W 3518   3.212   3.758   7.959
 3038W        W 3519   2.732   6.233   7.970
 3039W        W 3520   1.634   5.291   8.055
 3040W        W 3521   2.821   4.095   7.578
 3041W        W 3522   2.886   4.702   9.764
 3042W        W 3523   0.595   5.295   8.971
 3043W        W 3524   0.889   6.234   8.620
 3044W        W 3525   2.652   4.854   8.585
 3045W        W 3526   1.675   4.233   9.281
 3046W        W 3527   3.637   6.144   9.792
 3047W        W 3528   3.555   4.131   9.353
 3048W        W 3529   0.094   6.961   8.729
 3049W        W 3530   0.603   6.148   8.265
 3050W        W 3531   0.518   3.765  10.818
 3051W        W 3532   1.637   6.618  10.920
 3052W        W 3533   3.392   5.586   8.710
 3053W        W 3534   2.746   5.763   7.590
 3054W        W 3535   2.041   7.284   9.802
 3055W        W 3536   2.898   6.006  10.839
 3056W        W 3537   1.713   3.716   8.119
 3057W        W 3538   2.426   4.585   8.978
 3058W        W 3539   0.112   6.172   9.310
 3059W        W 3540   1.365   4.134   7.951
 3060W        W 3541   1.169   5.618  10.800
 3061W        W 3542   2.163   4.599   8.514
 3062W        W 3543   2.368   6.009   9.636
 3063W        W 3544   0.522   6.614  10.071
 3064W        W 3545   1.113   6.597  10.794
 3065W        W 3546   0.964   4.394   7.808
 3066W        W 3547   2.481   4.536   8.133
 3067W        W 3548   2.439   6.644  10.370
 3068W        W 3549   1.124   5.236   8.969
 3069W        W 3550   0.779   6.934   9.834
 3070W        W 3551   3.524   7.051   7.435
 3071W        W 3552   0.387   5.723  10.431
 3072W        W 3553   2.382   5.985   9.119
 3073W        W 3554   0.818   5.634   8.361
 3074W        W 3555   1.189   6.641   9.756
 3075W        W 3556   1.567   4.060   8.797
 3076W        W 3557   0.178   6.044   7.727
 3077W        W 3558   1.697   4.995   7.597
 3078W        W 3559   0.343   5.544   8.616
 3079W        W 3560   1.633   4.186  10.080
 3080W        W 3561   3.305   3.895   7.507
 3081W        W 3562   3.398   5.641  10.606
 3082W        W 3563   2.052   6.898  10.758
 3083W        W 3564   3.610   5.992  10.280
 3084W        W 3565   3.018   6.790  10.891
 3085W        W 3566   0.757   7.246   9.369
 3086W        W 3567   3.616   5.868   8.243
 3087W        W 3568   2.146   5.135   8.756
 3088W        W 3569   1.913   3.747   8.646
 3089W        W 3570   0.972   6.731   8.483
 3090W        W 3571   1.471   4.472   9.708
 3091W        W 3572   1.171   3.841   9.177
 3092W        W 3573   0.234   6.663   7.725
 3093W        W 3574   2.050   6.027   8.443
 3094W        W 3575   0.925   6.822  10.322
 3095W        W 3576   0.402   5.645   8.018
 3096W        W 3577   0.287   4.188   9.017
 3097W        W 3578   1.835   6.153   9.074
 3098W        W 3579   0.087   4.007   8.094
 3099W        W 3580   2.751   5.213  10.021
 3100W        W 3581   2.628   4.599   7.593
 3101W        W 3582   3.145   6.271   9.241
 3102W        W 3583   1.806   6.755   9.072
 3103W        W 3584   1.218   6.859   7.983
 3104W        W 3585   2.500   3.762   7.413
 3105W        W 3586   0.300   7.022   9.154
 3106W        W 3587   2.497   4.780  10.789
 3107W        W 3588   0.480   4.310  10.788
 3108W        W 3589   0.211   4.910   8.121
 3109W        W 3590   0.902   4.899   7.846
 3110W        W 3591   2.665   5.226  10.663
 3111W        W 3592   1.008   5.507   9.372
 3112W        W 3593   2.482   3.793   8.492
 3113W        W 3594   1.613   7.224   8.995
 3114W        W 3595   2.827   6.686   9.932
 3115W        W 3596   2.411   6.835   9.043
 3116W        W 3597   2.430   5.815   8.637
 3117W        W 3598   1.892   4.040   7.708
 3118W        W 3599   3.573   3.668   8.430
 3119W        W 3600   1.261   5.303   7.593
 3120W        W 3601   2.119   5.810   7.460
 3121W        W 3602   3.055   6.010  10.208
 3122W        W 3603   2.709   6.711   7.675
 3123W        W 3604   1.324   4.386  10.581
 3124W        W 3605   1.144   4.970   9.822
 3125W        W 3606   3.236   6.465  10.099
 3126W        W 3607   2.336   4.415  10.476
 3127W        W 3608   0.180   4.886  10.253
 3128W        W 3609   1.940   5.363   9.979
 3129W        W 3610   0.297   6.121   8.636
 3130W        W 3611   0.444   5.418   9.526
 3131W        W 3612   2.761   5.704   9.876
 3132W        W 3613   2.533   7.084  10.687
 3133W        W 3614   2.429   4.823  10.240
 3134W        W 3615   2.706   6.877   8.645
 3135W        W 3616   1.708   6.597   9.968
 3136W        W 3617   1.193   6.952   9.237
 3137W        W 3618   2.998   6.123   9.656
 3138W        W 3619   2.048   6.195  10.793
 3139W        W 3620   0.653   6.148   9.132
 3140W        W 3621   2.999   5.907   8.777
 3141W        W 3622   2.640   6.973   9.528
 3142W        W 3623   0.618   6.702   9.398
 3143W        W 3624   1.639   4.754  10.608
 3144W        W 3625   2.090   6.920   8.119
 3145W        W 3626   1.398   6.175  10.757
 3146W        W 3627   0.745   5.153   7.393
 3147W        W 3628   0.084   7.239  14.292
 3148W        W 3629   0.460   6.132  13.815
 3149W        W 3630   3.165   5.862  11.585
 3150W        W 3631   3.295   6.947  13.612
 3151W        W 3632   1.213   6.938  11.138
 3152W        W 3633   1.296   5.090  12.121
 3153W        W 3634   0.811   4.938  12.285
 3154W        W 3635   1.802   5.753  11.719
 3155W        W 3636   1.477   6.845  14.074
 3156W        W 3637   0.888   3.686  13.839
 3157W        W 3638   2.582   4.074  12.726
 3158W        W 3639   2.231   4.945  11.296
 3159W        W 3640   2.801   4.379  14.387
 3160W        W 3641   0.167   4.171  13.512
 3161W        W 3642   0.266   6.790  14.533
 3162W        W 3643   1.788   6.180  11.265
 3163W        W 3644   0.220   4.963  12.958
 3164W        W 3645   1.113   4.854  14.195
 3165W        W 3646   3.572   4.713  12.694
 3166W        W 3647   3.336   5.756  13.553
 3167W        W 3648   1.644   5.089  12.580
 3168W        W 3649   2.190   6.428  12.949
 3169W        W 3650   0.690   5.862  13.181
 3170W        W 3651   0.049   5.390  12.752
 3171W        W 3652   1.085   5.362  13.944
 3172W        W 3653   3.356   5.145  14.198
 3173W        W 3654   0.972   6.589  12.643
 3174W        W 3655   2.093   6.278  13.777
 3175W        W 3656   1.313   4.918  13.002
 3176W        W 3657   1.605   5.702  12.645
 3177W        W 3658   2.602   6.475  14.493
 3178W        W 3659   1.681   5.795  14.503
 3179W        W 3660   0.071   4.902  14.503
 3180W        W 3661   2.903   6.437  14.102
 3181W        W 3662   0.484   4.019  12.100
 3182W        W 3663   1.011   6.277  13.099
 3183W        W 3664   3.474   6.060  12.389
 3184W        W 3665   2.887   4.460  12.956
 3185W        W 3666   3.172   4.413  11.051
 3186W        W 3667   3.637   5.214  13.357
 3187W        W 3668   1.604   6.921  13.110
 3188W        W 3669   3.378   6.387  11.548
 3189W        W 3670   0.507   7.173  11.302
 3190W        W 3671   0.900   7.219  11.978
 3191W        W 3672   0.697   3.973  13.404
 3192W        W 3673   3.320   4.991  13.679
 3193W        W 3674   2.725   5.413  12.138
 3194W        W 3675   2.691   5.101  11.165
 3195W        W 3676   1.899   6.245  13.305
 3196W        W 3677   1.705   4.575  12.504
 3197W        W 3678   2.305   6.662  13.498
 3198W        W 3679   3.176   5.453  11.920
 3199W        W 3680   2.078   4.111  11.936
 3200W        W 3681   0.735   6.805  11.619
 3201W        W 3682   0.106   4.304  12.218
 3202W        W 3683   2.892   4.911  12.692
 3203W        W 3684   0.350   6.528  12.607
 3204W        W 3685   1.691   6.878  11.477
 3205W        W 3686   3.083   4.904  10.941
 3206W        W 3687   0.106   6.662  13.105
 3207W        W 3688   0.897   6.234  13.585
 3208W        W 3689   1.270   5.594  12.204
 3209W        W 3690   1.292   3.999  13.297
 3210W        W 3691   3.521   3.761  12.594
 3211W        W 3692   0.740   5.633  11.062
 3212W        W 3693   0.395   4.666  11.241
 3213W        W 3694   0.457   6.622  12.035
 3214W        W 3695   1.588   6.105  12.283
 3215W        W 3696   2.920   6.964  13.997
 3216W        W 3697   1.846   4.606  11.681
 3217W        W 3698   3.229   7.004  12.453
 3218W        W 3699   2.906   4.857  14.051
 3219W        W 3700   3.619   6.513  12.185
 3220W        W 3701   2.246   5.805  13.669
 3221W        W 3702   0.012   5.356  11.875
 3222W        W 3703   1.123   5.771  13.448
 3223W        W 3704   2.327   5.035  11.826
 3224W        W 3705   2.204   5.525  11.930
 3225W        W 3706   0.547   4.945  13.404
 3226W        W 3707   0.532   4.821  14.326
 3227W        W 3708   0.422   3.738  12.485
 3228W        W 3709   2.190   4.085  13.046
 3229W        W 3710   1.838   4.270  14.209
 3230W        W 3711   2.193   4.419  11.387
 3231W        W 3712   3.376   6.812  14.141
 3232W        W 3713   2.343   3.893  14.180
 3233W        W 3714   3.362   6.194  14.302
 3234W        W 3715   2.792   4.361  13.898
 3235W        W 3716   2.592   4.299  12.168
 3236W        W 3717   2.985   5.433  14.572
 3237W        W 3718   0.725   7.009  12.558
 3238W        W 3719   1.383   4.726  11.544
 3239W        W 3720   0.952   4.010  14.208
 3240W        W 3721   3.004   4.494  11.889
 3241W        W 3722   3.371   4.976  11.834
 3242W        W 3723   1.114   7.193  14.305
 3243W        W 3724   1.040   3.729  11.540
 3244W        W 3725   3.361   4.263  12.575
 3245W        W 3726   3.511   6.512  11.020
 3246W        W 3727   0.418   5.715  12.722
 3247W        W 3728   2.335   4.302  10.952
 3248W        W 3729   3.469   6.634  12.672
 3249W        W 3730   3.508   3.828  13.422
 3250W        W 3731   1.953   5.040  13.976
 3251W        W 3732   2.046   6.379  11.679
 3252W        W 3733   2.120   3.650  12.728
 3253W        W 3734   0.732   4.553  12.791
 3254W        W 3735   0.286   5.753  13.565
 3255W        W 3736   2.145   6.946  12.271
 3256W        W 3737   3.339   4.543  13.143
 3257W        W 3738   1.976   6.890  13.910
 3258W        W 3739   3.319   5.949  11.115
 3259W        W 3740   1.754   5.432  12.176
 3260W        W 3741   3.606   3.943  13.917
 3261W        W 3742   1.755   5.778  13.511
 3262W        W 3743   1.972   4.664  12.956
 3263W        W 3744   2.824   4.962  11.794
 3264W        W 3745   3.111   4.695  11.436
 3265W        W 3746   2.920   6.735  11.825
 3266W        W 3747   2.754   6.338  12.621
 3267W        W 3748   2.650   5.417  11.599
 3268W        W 3749   2.083   5.627  12.585
 3269W        W 3750   2.964   5.415  12.652
 3270W        W 3751   0.339   4.430  13.076
 3271W        W 3752   3.117   5.482  13.903
 3272W        W 3753   3.468   7.100  13.049
 3273W        W 3754   1.398   6.544  12.451
 3274W        W 3755   2.405   7.077  13.775
 3275W        W 3756   2.399   4.407  13.539
 3276W        W 3757   1.606   7.115  13.600
 3277W        W 3758   3.303   4.069  12.066
 3278W        W 3759   3.094   5.388  13.367
 3279W        W 3760   0.077   4.709  13.405
 3280W        W 3761   2.937   4.504  12.423
 3281W        W 3762   3.348   4.655  14.200
 3282W        W 3763   2.233   6.354  12.418
 3283W        W 3764   1.489   6.945  12.031
 3284W        W 3765   0.604   4.125  11.289
 3285W        W 3766   1.708   3.779  13.099
 3286W        W 3767   0.736   6.899  10.947
 3287W        W 3768   1.110   5.365  11.698
 3288W        W 3769   1.764   5.994  14.011
 3289W        W 3770   1.594   4.352  12.001
 3290W        W 3771   2.950   3.949  12.429
 3291W        W 3772   2.670   7.231  12.757
 3292W        W 3773   2.082   6.879  13.097
 3293W        W 3774   1.478   5.916  13.058
 3294W        W 3775   3.248   6.639  13.184
 3295W        W 3776   0.942   4.142  11.953
 3296W        W 3777   1.464   6.439  12.913
 3297W        W 3778   0.947   4.370  10.978
 3298W        W 3779   1.748   4.979  13.372
 3299W        W 3780   2.596   3.845  13.242
 3300W        W 3781   0.016   5.688  13.127
 3301W        W 3782   1.720   5.506  11.285
 3302W        W 3783   0.988   3.821  11.055
 3303W        W 3784   1.726   4.902  12.106
 3304W        W 3785   2.696   3.878  13.805
 3305W        W 3786   1.284   5.890  13.914
 3306W        W 3787   2.088   5.672  14.131
 3307W        W 3788   2.705   5.702  14.024
 3308W        W 3789   1.989   3.842  14.529
 3309W        W 3790   1.211   4.458  12.922
 3310W        W 3791   0.637   4.414  12.320
 3311W        W 3792   0.423   7.126  11.996
 3312W        W 3793   1.755   6.456  14.121
 3313W        W 3794   0.790   5.941  11.480
 3314W        W 3795   2.470   5.326  12.701
 3315W        W 3796   2.750   5.125  13.100
 3316W        W 3797   1.955   5.799  13.034
 3317W        W 3798   2.425   6.173  11.166
 3318W        W 3799   2.097   4.194  12.494
 3319W        W 3800   3.576   4.472  11.762
 3320W        W 3801   0.070   7.061  13.793
 3321W        W 3802   0.487   6.287  13.325
 3322W        W 3803   0.054   7.133  11.557
 3323W        W 3804   1.953   4.403  13.363
 3324W        W 3805   1.316   6.426  11.212
 3325W        W 3806   3.221   6.808  11.398
 3326W        W 3807   2.196   5.461  11.412
 3327W        W 3808   1.039   4.652  11.929
 3328W        W 3809   1.871   4.562  10.981
 3329W        W 3810   2.455   6.127  14.159
 3330W        W 3811   2.808   4.033  11.776
 3331W        W 3812   0.138   3.881  11.224
 3332W        W 3813   1.424   6.200  13.514
 3333W        W 3814   1.223   6.116  12.606
 3334W        W 3815   0.965   6.068  11.004
 3335W        W 3816   0.206   6.309  11.772
 3336W        W 3817   0.710   5.379  14.214
 3337W        W 3818   1.414   3.939  14.400
 3338W        W 3819   2.123   4.081  13.756
 3339W        W 3820   1.318   3.849  12.037
 3340W        W 3821   2.377   3.926  11.542
 3341W        W 3822   0.322   3.858  13.119
 3342W        W 3823   0.370   4.821  12.489
 3343W        W 3824   3.059   3.929  12.895
 3344W        W 3825   0.481   4.427  11.709
 3345W        W 3826   3.052   4.115  13.325
 3346W        W 3827   3.448   5.318  11.010
 3347W        W 3828   0.740   4.076  12.829
 3348W        W 3829   1.854   4.648  13.769
 3349W        W 3830   0.002   4.338  11.247
 3350W        W 3831   0.788   5.727  13.808
 3351W        W 3832   2.146   5.125  12.987
 3352W        W 3833   2.013   7.204  11.283
 3353W        W 3834   0.159   5.711  10.980
 3354W        W 3835   0.894   6.122  14.106
 3355W        W 3836   0.415   5.289  13.737
 3356W        W 3837   1.406   5.394  13.531
 3357W        W 3838   3.174   3.753  13.793
 3358W        W 3839   3.572   5.363  13.784
 3359W        W 3840   3.560   5.563  11.470
 3360W        W 3841   2.423   5.895  11.569
 3361W        W 3842   2.897   7.195  11.264
 3362W        W 3843   2.074   5.185  14.406
 3363W        W 3844   0.404   6.152  14.446
 3364W        W 3845   3.610   4.074  14.398
 3365W        W 3846   3.328   5.002  13.019
 3366W        W 3847   1.636   7.132  14.496
 3367W        W 3848   1.491   3.761  11.223
 3368W        W 3849   3.030   6.360  11.166
 3369W        W 3850   0.799   4.453  14.052
 3370W        W 3851   1.233   6.447  13.914
 3371W        W 3852   3.359   4.438  13.712
 3372W        W 3853   2.570   7.097  11.680
 3373W        W 3854   2.809   5.716  13.047
 3374W        W 3855   1.059   4.132  13.714
 3375W        W 3856   1.528   5.201  14.471
 3376W        W 3857   1.031   6.380  11.665
 3377W        W 3858   2.786   5.878  11.929
 3378W        W 3859   0.554   4.504  13.653
 3379W        W 3860   1.883   6.566  12.117
 3380W        W 3861   3.633   5.126  12.298
 3381W        W 3862   1.855   3.759  14.017
 3382W        W 3863   2.635   6.464  13.096
 3383W        W 3864   2.938   6.808  12.804
 3384W        W 3865   2.157   6.610  11.232
 3385W        W 3866   0.167   6.502  14.074
 3386W        W 3867   0.910   4.494  13.312
 3387W        W 3868   0.880   3.842  12.422
 3388W        W 3869   2.501   4.684  13.114
 3389W        W 3870   1.299   5.855  11.314
 3390W        W 3871   3.297   5.797  12.813
 3391W        W 3872   0.624   6.555  14.236
 3392W        W 3873   3.011   7.237  12.033
 3393W        W 3874   1.110   4.257  12.478
 3394W        W 3875   0.879   5.750  12.568
 3395W        W 3876   1.192   7.161  13.318
 3396W        W 3877   3.259   7.257  14.350
 3397W        W 3878   2.418   5.445  13.283
 3398W        W 3879   0.267   5.243  11.198
 3399W        W 3880   3.401   6.901  11.895
 3400W        W 3881   3.238   4.225  11.514
 3401W        W 3882   1.377   3.744  13.917
 3402W        W 3883   3.083   6.546  12.375
 3403W        W 3884   3.112   5.102  12.280
 3404W        W 3885   1.229   4.775  12.496
 3405W        W 3886   1.474   5.037  13.820
 3406W        W 3887   2.585   6.190  13.683
 3407W        W 3888   1.235   4.644  13.795
 3408W        W 3889   1.214   7.110  12.411
 3409W        W 3890   0.531   7.069  14.045
 3410W        W 3891   0.643   6.430  11.175
 3411W        W 3892   3.160   6.188  11.985
 3412W        W 3893   0.764   4.980  13.871
 3413W        W 3894   3.537   4.910  11.352
 3414W        W 3895   1.282   5.967  11.823
 3415W        W 3896   2.381   5.349  13.904
 3416W        W 3897   2.272   4.977  13.448
 3417W        W 3898   0.832   5.349  13.477
 3418W        W 3899   3.042   7.237  13.306
 3419W        W 3900   2.833   3.871  14.300
 3420W        W 3901   0.497   4.021  13.887
 3421W        W 3902   0.836   5.044  12.940
 3422W        W 3903   1.205   4.858  11.062
 3423W        W 3904   0.008   6.617  13.607
 3424W        W 3905   1.593   5.326  13.050
 3425W        W 3906   1.416   4.351  11.155
 3426W        W 3907   0.551   5.167  11.936
 3427W        W 3908   0.322   7.019  13.373
 3428W        W 3909   3.117   5.245  11.481
 3429W        W 3910   3.212   4.161  14.167
 3430W        W 3911   2.648   6.370  12.130
 3431W        W 3912   0.246   5.294  14.307
 3432W        W 3913   3.212   3.758  11.603
 3433W        W 3914   2.732   6.233  11.614
 3434W        W 3915   1.634   5.291  11.699
 3435W        W 3916   2.821   4.095  11.222
 3436W        W 3917   2.886   4.702  13.408
 3437W        W 3918   0.595   5.295  12.615
 3438W        W 3919   0.889   6.234  12.264
 3439W        W 3920   2.652   4.854  12.229
 3440W        W 3921   1.675   4.233  12.925
 3441W        W 3922   3.637   6.144  13.436
 3442W        W 3923   3.555   4.131  12.997
 3443W        W 3924   0.094   6.961  12.373
 3444W        W 3925   0.518   3.765  14.462
 3445W        W 3926   1.637   6.618  14.564
 3446W        W 3927   3.392   5.586  12.354
 3447W        W 3928   2.746   5.763  11.234
 3448W        W 3929   2.041   7.284  13.446
 3449W        W 3930   2.898   6.006  14.483
 3450W        W 3931   1.713   3.716  11.763
 3451W        W 3932   2.426   4.585  12.622
 3452W        W 3933   0.112   6.172  12.954
 3453W        W 3934   1.365   4.134  11.595
 3454W        W 3935   1.169   5.618  14.444
 3455W        W 3936   2.163   4.599  12.158
 3456W        W 3937   2.368   6.009  13.280
 3457W        W 3938   0.522   6.614  13.715
 3458W        W 3939   1.113   6.597  14.438
 3459W        W 3940   0.964   4.394  11.452
 3460W        W 3941   2.481   4.536  11.777
 3461W        W 3942   2.439   6.644  14.014
 3462W        W 3943   1.124   5.236  12.613
 3463W        W 3944   0.779   6.934  13.478
 3464W        W 3945   3.524   7.051  11.079
 3465W        W 3946   0.387   5.723  14.075
 3466W        W 3947   2.382   5.985  12.763
 3467W        W 3948   0.818   5.634  12.005
 3468W        W 3949   1.189   6.641  13.400
 3469W        W 3950   1.567   4.060  12.441
 3470W        W 3951   0.178   6.044  11.371
 3471W        W 3952   1.697   4.995  11.241
 3472W        W 3953   0.343   5.544  12.260
 3473W        W 3954   1.633   4.186  13.724
 3474W        W 3955   3.305   3.895  11.151
 3475W        W 3956   3.398   5.641  14.250
 3476W        W 3957   2.052   6.898  14.402
 3477W        W 3958   3.610   5.992  13.924
 3478W        W 3959   3.018   6.790  14.535
 3479W        W 3960   0.757   7.246  13.013
 3480W        W 3961   3.616   5.868  11.887
 3481W        W 3962   2.146   5.135  12.400
 3482W        W 3963   1.913   3.747  12.290
 3483W        W 3964   0.972   6.731  12.127
 3484W        W 3965   1.471   4.472  13.352
 3485W        W 3966   1.171   3.841  12.821
 3486W        W 3967   0.234   6.663  11.369
 3487W        W 3968   2.050   6.027  12.087
 3488W        W 3969   0.925   6.822  13.966
 3489W        W 3970   0.402   5.645  11.662
 3490W        W 3971   0.287   4.188  12.661
 3491W        W 3972   1.835   6.153  12.718
 3492W        W 3973   0.087   4.007  11.738
 3493W        W 3974   2.751   5.213  13.665
 3494W        W 3975   2.628   4.599  11.237
 3495W        W 3976   3.145   6.271  12.885
 3496W        W 3977   1.806   6.755  12.716
 3497W        W 3978   1.218   6.859  11.627
 3498W        W 3979   2.500   3.762  11.057
 3499W        W 3980   0.300   7.022  12.798
 3500W        W 3981   2.497   4.780  14.433
 3501W        W 3982   0.480   4.310  14.432
 3502W        W 3983   0.211   4.910  11.765
 3503W        W 3984   0.902   4.899  11.490
 3504W        W 3985   2.665   5.226  14.307
 3505W        W 3986   1.008   5.507  13.016
 3506W        W 3987   2.482   3.793  12.136
 3507W        W 3988   1.613   7.224  12.639
 3508W        W 3989   2.827   6.686  13.576
 3509W        W 3990   2.411   6.835  12.687
 3510W        W 3991   2.430   5.815  12.281
 3511W        W 3992   1.892   4.040  11.352
 3512W        W 3993   3.573   3.668  12.074
 3513W        W 3994   1.261   5.303  11.237
 3514W        W 3995   3.427   4.640  12.227
 3515W        W 3996   2.119   5.810  11.104
 3516W        W 3997   3.055   6.010  13.852
 3517W        W 3998   2.709   6.711  11.319
 3518W        W 3999   1.324   4.386  14.225
 3519W        W 4000   1.144   4.970  13.466
 3520W        W 4001   3.236   6.465  13.743
 3521W        W 4002   2.336   4.415  14.120
 3522W        W 4003   0.180   4.886  13.897
 3523W        W 4004   1.940   5.363  13.623
 3524W        W 4005   0.297   6.121  12.280
 3525W        W 4006   0.444   5.418  13.170
 3526W        W 4007   2.761   5.704  13.520
 3527W        W 4008   2.533   7.084  14.331
 3528W        W 4009   2.429   4.823  13.884
 3529W        W 4010   2.706   6.877  12.289
 3530W        W 4011   1.708   6.597  13.612
 3531W        W 4012   1.193   6.952  12.881
 3532W        W 4013   2.998   6.123  13.300
 3533W        W 4014   2.048   6.195  14.437
 3534W        W 4015   0.653   6.148  12.776
 3535W        W 4016   2.999   5.907  12.421
 3536W        W 4017   2.640   6.973  13.172
 3537W        W 4018   0.618   6.702  13.042
 3538W        W 4019   1.639   4.754  14.252
 3539W        W 4020   2.090   6.920  11.763
 3540W        W 4021   1.398   6.175  14.401
 3541W        W 4022   1.524   6.413  11.778
 3542W        W 4023   0.745   5.153  11.037
 3543W        W 4024   0.084   7.239  17.936
 3544W        W 4025   0.460   6.132  17.459
 3545W        W 4026   3.165   5.862  15.229
 3546W        W 4027   3.295   6.947  17.256
 3547W        W 4028   1.213   6.938  14.782
 3548W        W 4029   1.296   5.090  15.765
 3549W        W 4030   0.811   4.938  15.929
 3550W        W 4031   1.802   5.753  15.363
 3551W        W 4032   1.477   6.845  17.718
 3552W        W 4033   0.126   4.406  17.681
 3553W        W 4034   0.888   3.686  17.483
 3554W        W 4035   2.582   4.074  16.370
 3555W        W 4036   2.231   4.945  14.940
 3556W        W 4037   0.167   4.171  17.156
 3557W        W 4038   1.788   6.180  14.909
 3558W        W 4039   0.220   4.963  16.602
 3559W        W 4040   3.572   4.713  16.338
 3560W        W 4041   3.336   5.756  17.197
 3561W        W 4042   1.644   5.089  16.224
 3562W        W 4043   2.190   6.428  16.593
 3563W        W 4044   0.690   5.862  16.825
 3564W        W 4045   0.049   5.390  16.396
 3565W        W 4046   0.972   6.589  16.287
 3566W        W 4047   2.093   6.278  17.421
 3567W        W 4048   1.313   4.918  16.646
 3568W        W 4049   1.605   5.702  16.289
 3569W        W 4050   1.662   5.511  17.625
 3570W        W 4051   2.903   6.437  17.746
 3571W        W 4052   0.484   4.019  15.744
 3572W        W 4053   1.011   6.277  16.743
 3573W        W 4054   2.887   4.460  16.600
 3574W        W 4055   3.172   4.413  14.695
 3575W        W 4056   3.637   5.214  17.001
 3576W        W 4057   1.604   6.921  16.754
 3577W        W 4058   3.378   6.387  15.192
 3578W        W 4059   0.507   7.173  14.946
 3579W        W 4060   0.900   7.219  15.622
 3580W        W 4061   0.697   3.973  17.048
 3581W        W 4062   3.320   4.991  17.323
 3582W        W 4063   2.725   5.413  15.782
 3583W        W 4064   2.691   5.101  14.809
 3584W        W 4065   1.899   6.245  16.949
 3585W        W 4066   1.705   4.575  16.148
 3586W        W 4067   3.176   5.453  15.564
 3587W        W 4068   2.078   4.111  15.580
 3588W        W 4069   0.735   6.805  15.263
 3589W        W 4070   0.106   4.304  15.862
 3590W        W 4071   2.892   4.911  16.336
 3591W        W 4072   0.350   6.528  16.251
 3592W        W 4073   1.691   6.878  15.121
 3593W        W 4074   3.083   4.904  14.585
 3594W        W 4075   0.106   6.662  16.749
 3595W        W 4076   0.897   6.234  17.229
 3596W        W 4077   1.270   5.594  15.848
 3597W        W 4078   1.292   3.999  16.941
 3598W        W 4079   3.521   3.761  16.238
 3599W        W 4080   0.740   5.633  14.706
 3600W        W 4081   0.395   4.666  14.885
 3601W        W 4082   0.457   6.622  15.679
 3602W        W 4083   1.588   6.105  15.927
 3603W        W 4084   2.920   6.964  17.641
 3604W        W 4085   1.846   4.606  15.325
 3605W        W 4086   3.229   7.004  16.097
 3606W        W 4087   3.619   6.513  15.829
 3607W        W 4088   2.246   5.805  17.313
 3608W        W 4089   0.012   5.356  15.519
 3609W        W 4090   1.123   5.771  17.092
 3610W        W 4091   2.327   5.035  15.470
 3611W        W 4092   2.204   5.525  15.574
 3612W        W 4093   0.547   4.945  17.048
 3613W        W 4094   0.422   3.738  16.129
 3614W        W 4095   2.190   4.085  16.690
 3615W        W 4096   2.193   4.419  15.031
 3616W        W 4097   3.376   6.812  17.785
 3617W        W 4098   2.343   3.893  17.824
 3618W        W 4099   2.792   4.361  17.542
 3619W        W 4100   2.592   4.299  15.812
 3620W        W 4101   0.725   7.009  16.202
 3621W        W 4102   1.383   4.726  15.188
 3622W        W 4103   3.004   4.494  15.533
 3623W        W 4104   3.371   4.976  15.478
 3624W        W 4105   1.040   3.729  15.184
 3625W        W 4106   3.361   4.263  16.219
 3626W        W 4107   3.511   6.512  14.664
 3627W        W 4108   0.418   5.715  16.366
 3628W        W 4109   2.335   4.302  14.596
 3629W        W 4110   3.508   3.828  17.066
 3630W        W 4111   1.953   5.040  17.620
 3631W        W 4112   2.046   6.379  15.323
 3632W        W 4113   2.120   3.650  16.372
 3633W        W 4114   0.732   4.553  16.435
 3634W        W 4115   0.286   5.753  17.209
 3635W        W 4116   2.145   6.946  15.915
 3636W        W 4117   3.339   4.543  16.787
 3637W        W 4118   1.976   6.890  17.554
 3638W        W 4119   3.319   5.949  14.759
 3639W        W 4120   1.754   5.432  15.820
 3640W        W 4121   3.606   3.943  17.561
 3641W        W 4122   1.755   5.778  17.155
 3642W        W 4123   1.972   4.664  16.600
 3643W        W 4124   2.824   4.962  15.438
 3644W        W 4125   3.111   4.695  15.080
 3645W        W 4126   2.920   6.735  15.469
 3646W        W 4127   2.754   6.338  16.265
 3647W        W 4128   2.650   5.417  15.243
 3648W        W 4129   2.083   5.627  16.229
 3649W        W 4130   2.964   5.415  16.296
 3650W        W 4131   0.339   4.430  16.720
 3651W        W 4132   3.117   5.482  17.547
 3652W        W 4133   3.468   7.100  16.693
 3653W        W 4134   1.398   6.544  16.095
 3654W        W 4135   2.405   7.077  17.419
 3655W        W 4136   2.399   4.407  17.183
 3656W        W 4137   1.606   7.115  17.244
 3657W        W 4138   3.303   4.069  15.710
 3658W        W 4139   3.094   5.388  17.011
 3659W        W 4140   0.077   4.709  17.049
 3660W        W 4141   2.937   4.504  16.067
 3661W        W 4142   2.233   6.354  16.062
 3662W        W 4143   1.489   6.945  15.675
 3663W        W 4144   0.604   4.125  14.933
 3664W        W 4145   1.708   3.779  16.743
 3665W        W 4146   0.736   6.899  14.591
 3666W        W 4147   1.110   5.365  15.342
 3667W        W 4148   1.764   5.994  17.655
 3668W        W 4149   1.594   4.352  15.645
 3669W        W 4150   2.950   3.949  16.073
 3670W        W 4151   2.670   7.231  16.401
 3671W        W 4152   2.082   6.879  16.741
 3672W        W 4153   1.478   5.916  16.702
 3673W        W 4154   3.248   6.639  16.828
 3674W        W 4155   0.942   4.142  15.597
 3675W        W 4156   1.464   6.439  16.557
 3676W        W 4157   0.947   4.370  14.622
 3677W        W 4158   1.748   4.979  17.016
 3678W        W 4159   2.596   3.845  16.886
 3679W        W 4160   0.016   5.688  16.771
 3680W        W 4161   1.720   5.506  14.929
 3681W        W 4162   0.988   3.821  14.699
 3682W        W 4163   1.726   4.902  15.750
 3683W        W 4164   2.696   3.878  17.449
 3684W        W 4165   1.284   5.890  17.558
 3685W        W 4166   2.705   5.702  17.668
 3686W        W 4167   1.211   4.458  16.566
 3687W        W 4168   0.423   7.126  15.640
 3688W        W 4169   1.755   6.456  17.765
 3689W        W 4170   0.790   5.941  15.124
 3690W        W 4171   2.470   5.326  16.345
 3691W        W 4172   2.750   5.125  16.744
 3692W        W 4173   1.955   5.799  16.678
 3693W        W 4174   2.425   6.173  14.810
 3694W        W 4175   2.097   4.194  16.138
 3695W        W 4176   3.576   4.472  15.406
 3696W        W 4177   0.070   7.061  17.437
 3697W        W 4178   0.487   6.287  16.969
 3698W        W 4179   0.054   7.133  15.201
 3699W        W 4180   1.953   4.403  17.007
 3700W        W 4181   1.316   6.426  14.856
 3701W        W 4182   3.221   6.808  15.042
 3702W        W 4183   2.196   5.461  15.056
 3703W        W 4184   1.039   4.652  15.573
 3704W        W 4185   1.871   4.562  14.625
 3705W        W 4186   2.808   4.033  15.420
 3706W        W 4187   1.424   6.200  17.158
 3707W        W 4188   1.223   6.116  16.250
 3708W        W 4189   0.965   6.068  14.648
 3709W        W 4190   0.206   6.309  15.416
 3710W        W 4191   2.123   4.081  17.400
 3711W        W 4192   1.318   3.849  15.681
 3712W        W 4193   2.377   3.926  15.186
 3713W        W 4194   0.322   3.858  16.763
 3714W        W 4195   0.370   4.821  16.133
 3715W        W 4196   3.059   3.929  16.539
 3716W        W 4197   0.481   4.427  15.353
 3717W        W 4198   3.052   4.115  16.969
 3718W        W 4199   3.448   5.318  14.654
 3719W        W 4200   0.740   4.076  16.473
 3720W        W 4201   1.854   4.648  17.413
 3721W        W 4202   0.788   5.727  17.452
 3722W        W 4203   2.146   5.125  16.631
 3723W        W 4204   2.013   7.204  14.927
 3724W        W 4205   0.159   5.711  14.624
 3725W        W 4206   0.415   5.289  17.381
 3726W        W 4207   1.406   5.394  17.175
 3727W        W 4208   3.174   3.753  17.437
 3728W        W 4209   3.572   5.363  17.428
 3729W        W 4210   3.560   5.563  15.114
 3730W        W 4211   2.423   5.895  15.213
 3731W        W 4212   2.897   7.195  14.908
 3732W        W 4213   3.328   5.002  16.663
 3733W        W 4214   1.491   3.761  14.867
 3734W        W 4215   3.030   6.360  14.810
 3735W        W 4216   1.233   6.447  17.558
 3736W        W 4217   3.359   4.438  17.356
 3737W        W 4218   2.570   7.097  15.324
 3738W        W 4219   1.059   4.132  17.358
 3739W        W 4220   1.031   6.380  15.309
 3740W        W 4221   2.786   5.878  15.573
 3741W        W 4222   0.554   4.504  17.297
 3742W        W 4223   1.883   6.566  15.761
 3743W        W 4224   3.633   5.126  15.942
 3744W        W 4225   1.855   3.759  17.661
 3745W        W 4226   2.635   6.464  16.740
 3746W        W 4227   2.938   6.808  16.448
 3747W        W 4228   2.157   6.610  14.876
 3748W        W 4229   0.167   6.502  17.718
 3749W        W 4230   0.910   4.494  16.956
 3750W        W 4231   0.880   3.842  16.066
 3751W        W 4232   2.501   4.684  16.758
 3752W        W 4233   1.299   5.855  14.958
 3753W        W 4234   3.297   5.797  16.457
 3754W        W 4235   3.011   7.237  15.677
 3755W        W 4236   1.110   4.257  16.122
 3756W        W 4237   0.879   5.750  16.212
 3757W        W 4238   1.192   7.161  16.962
 3758W        W 4239   2.418   5.445  16.927
 3759W        W 4240   0.267   5.243  14.842
 3760W        W 4241   3.401   6.901  15.539
 3761W        W 4242   3.238   4.225  15.158
 3762W        W 4243   1.377   3.744  17.561
 3763W        W 4244   3.083   6.546  16.019
 3764W        W 4245   3.112   5.102  15.924
 3765W        W 4246   1.229   4.775  16.140
 3766W        W 4247   1.474   5.037  17.464
 3767W        W 4248   2.585   6.190  17.327
 3768W        W 4249   1.235   4.644  17.439
 3769W        W 4250   1.214   7.110  16.055
 3770W        W 4251   0.643   6.430  14.819
 3771W        W 4252   3.160   6.188  15.629
 3772W        W 4253   0.764   4.980  17.515
 3773W        W 4254   3.537   4.910  14.996
 3774W        W 4255   1.282   5.967  15.467
 3775W        W 4256   2.381   5.349  17.548
 3776W        W 4257   2.272   4.977  17.092
 3777W        W 4258   0.832   5.349  17.121
 3778W        W 4259   3.042   7.237  16.950
 3779W        W 4260   0.497   4.021  17.531
 3780W        W 4261   0.836   5.044  16.584
 3781W        W 4262   1.205   4.858  14.706
 3782W        W 4263   0.008   6.617  17.251
 3783W        W 4264   1.593   5.326  16.694
 3784W        W 4265   1.416   4.351  14.799
 3785W        W 4266   0.551   5.167  15.580
 3786W        W 4267   0.322   7.019  17.017
 3787W        W 4268   3.117   5.245  15.125
 3788W        W 4269   2.648   6.370  15.774
 3789W        W 4270   3.212   3.758  15.247
 3790W        W 4271   2.732   6.233  15.258
 3791W        W 4272   1.634   5.291  15.343
 3792W        W 4273   2.821   4.095  14.866
 3793W        W 4274   2.886   4.702  17.052
 3794W        W 4275   0.595   5.295  16.259
 3795W        W 4276   0.889   6.234  15.908
 3796W        W 4277   2.652   4.854  15.873
 3797W        W 4278   1.675   4.233  16.569
 3798W        W 4279   3.637   6.144  17.080
 3799W        W 4280   3.555   4.131  16.641
 3800W        W 4281   0.094   6.961  16.017
 3801W        W 4282   0.603   6.148  15.553
 3802W        W 4283   3.392   5.586  15.998
 3803W        W 4284   2.746   5.763  14.878
 3804W        W 4285   2.041   7.284  17.090
 3805W        W 4286   1.713   3.716  15.407
 3806W        W 4287   2.426   4.585  16.266
 3807W        W 4288   0.112   6.172  16.598
 3808W        W 4289   1.365   4.134  15.239
 3809W        W 4290   2.163   4.599  15.802
 3810W        W 4291   2.368   6.009  16.924
 3811W        W 4292   0.522   6.614  17.359
 3812W        W 4293   0.964   4.394  15.096
 3813W        W 4294   2.481   4.536  15.421
 3814W        W 4295   2.439   6.644  17.658
 3815W        W 4296   1.124   5.236  16.257
 3816W        W 4297   0.779   6.934  17.122
 3817W        W 4298   3.524   7.051  14.723
 3818W        W 4299   0.818   5.634  15.649
 3819W        W 4300   1.189   6.641  17.044
 3820W        W 4301   1.567   4.060  16.085
 3821W        W 4302   0.178   6.044  15.015
 3822W        W 4303   1.697   4.995  14.885
 3823W        W 4304   0.343   5.544  15.904
 3824W        W 4305   1.633   4.186  17.368
 3825W        W 4306   3.305   3.895  14.795
 3826W        W 4307   3.610   5.992  17.568
 3827W        W 4308   0.757   7.246  16.657
 3828W        W 4309   3.616   5.868  15.531
 3829W        W 4310   2.146   5.135  16.044
 3830W        W 4311   1.913   3.747  15.934
 3831W        W 4312   0.972   6.731  15.771
 3832W        W 4313   1.471   4.472  16.996
 3833W        W 4314   1.171   3.841  16.465
 3834W        W 4315   0.234   6.663  15.013
 3835W        W 4316   2.050   6.027  15.731
 3836W        W 4317   0.925   6.822  17.610
 3837W        W 4318   0.402   5.645  15.306
 3838W        W 4319   0.287   4.188  16.305
 3839W        W 4320   1.835   6.153  16.362
 3840W        W 4321   0.087   4.007  15.382
 3841W        W 4322   2.751   5.213  17.309
 3842W        W 4323   2.628   4.599  14.881
 3843W        W 4324   3.145   6.271  16.529
 3844W        W 4325   1.806   6.755  16.360
 3845W        W 4326   1.218   6.859  15.271
 3846W        W 4327   2.500   3.762  14.701
 3847W        W 4328   0.300   7.022  16.442
 3848W        W 4329   0.211   4.910  15.409
 3849W        W 4330   0.902   4.899  15.134
 3850W        W 4331   1.008   5.507  16.660
 3851W        W 4332   2.482   3.793  15.780
 3852W        W 4333   1.613   7.224  16.283
 3853W        W 4334   2.827   6.686  17.220
 3854W        W 4335   2.411   6.835  16.331
 3855W        W 4336   2.430   5.815  15.925
 3856W        W 4337   1.892   4.040  14.996
 3857W        W 4338   3.573   3.668  15.718
 3858W        W 4339   1.261   5.303  14.881
 3859W        W 4340   3.427   4.640  15.871
 3860W        W 4341   2.119   5.810  14.748
 3861W        W 4342   3.055   6.010  17.496
 3862W        W 4343   2.709   6.711  14.963
 3863W        W 4344   1.144   4.970  17.110
 3864W        W 4345   3.236   6.465  17.387
 3865W        W 4346   0.180   4.886  17.541
 3866W        W 4347   1.940   5.363  17.267
 3867W        W 4348   0.297   6.121  15.924
 3868W        W 4349   0.444   5.418  16.814
 3869W        W 4350   2.761   5.704  17.164
 3870W        W 4351   2.533   7.084  17.975
 3871W        W 4352   2.429   4.823  17.528
 3872W        W 4353   2.706   6.877  15.933
 3873W        W 4354   1.708   6.597  17.256
 3874W        W 4355   1.193   6.952  16.525
 3875W        W 4356   2.998   6.123  16.944
 3876W        W 4357   0.653   6.148  16.420
 3877W        W 4358   2.640   6.973  16.816
 3878W        W 4359   0.618   6.702  16.686
 3879W        W 4360   2.090   6.920  15.407
 3880W        W 4361   1.524   6.413  15.422
 3881W        W 4362   0.745   5.153  14.681
 3882W        W 4363   0.084  10.884   3.359
 3883W        W 4364   0.460   9.777   2.882
 3884W        W 4365   3.165   9.507   0.652
 3885W        W 4366   3.295  10.592   2.679
 3886W        W 4367   1.213  10.583   0.205
 3887W        W 4368   1.296   8.735   1.188
 3888W        W 4369   0.811   8.583   1.352
 3889W        W 4370   1.802   9.398   0.786
 3890W        W 4371   1.477  10.490   3.141
 3891W        W 4372   0.126   8.051   3.104
 3892W        W 4373   0.888   7.331   2.906
 3893W        W 4374   2.582   7.719   1.793
 3894W        W 4375   2.231   8.590   0.363
 3895W        W 4376   2.801   8.024   3.454
 3896W        W 4377   0.167   7.816   2.579
 3897W        W 4378   0.266  10.435   3.600
 3898W        W 4379   1.788   9.825   0.332
 3899W        W 4380   0.220   8.608   2.025
 3900W        W 4381   1.113   8.499   3.262
 3901W        W 4382   3.572   8.358   1.761
 3902W        W 4383   3.336   9.401   2.620
 3903W        W 4384   1.644   8.734   1.647
 3904W        W 4385   2.190  10.073   2.016
 3905W        W 4386   0.690   9.507   2.248
 3906W        W 4387   0.049   9.035   1.819
 3907W        W 4388   1.085   9.007   3.011
 3908W        W 4389   3.356   8.790   3.265
 3909W        W 4390   0.972  10.234   1.710
 3910W        W 4391   2.093   9.923   2.844
 3911W        W 4392   1.313   8.563   2.069
 3912W        W 4393   1.605   9.347   1.712
 3913W        W 4394   2.602  10.120   3.560
 3914W        W 4395   1.681   9.440   3.570
 3915W        W 4396   1.662   9.156   3.048
 3916W        W 4397   0.071   8.547   3.570
 3917W        W 4398   2.903  10.082   3.169
 3918W        W 4399   0.484   7.664   1.167
 3919W        W 4400   1.011   9.922   2.166
 3920W        W 4401   3.474   9.705   1.456
 3921W        W 4402   2.887   8.105   2.023
 3922W        W 4403   3.172   8.058   0.118
 3923W        W 4404   3.637   8.859   2.424
 3924W        W 4405   1.604  10.566   2.177
 3925W        W 4406   3.378  10.032   0.615
 3926W        W 4407   0.507  10.818   0.369
 3927W        W 4408   0.900  10.864   1.045
 3928W        W 4409   0.697   7.618   2.471
 3929W        W 4410   3.320   8.636   2.746
 3930W        W 4411   2.725   9.058   1.205
 3931W        W 4412   2.691   8.746   0.232
 3932W        W 4413   1.899   9.890   2.372
 3933W        W 4414   1.705   8.220   1.571
 3934W        W 4415   2.305  10.307   2.565
 3935W        W 4416   3.176   9.098   0.987
 3936W        W 4417   2.078   7.756   1.003
 3937W        W 4418   0.735  10.450   0.686
 3938W        W 4419   0.106   7.949   1.285
 3939W        W 4420   2.892   8.556   1.759
 3940W        W 4421   0.350  10.173   1.674
 3941W        W 4422   1.691  10.523   0.544
 3942W        W 4423   3.083   8.549   0.008
 3943W        W 4424   0.106  10.307   2.172
 3944W        W 4425   0.897   9.879   2.652
 3945W        W 4426   1.270   9.239   1.271
 3946W        W 4427   1.292   7.644   2.364
 3947W        W 4428   3.521   7.406   1.661
 3948W        W 4429   0.740   9.278   0.129
 3949W        W 4430   0.395   8.311   0.308
 3950W        W 4431   0.457  10.267   1.102
 3951W        W 4432   1.588   9.750   1.350
 3952W        W 4433   2.920  10.609   3.064
 3953W        W 4434   1.846   8.251   0.748
 3954W        W 4435   3.229  10.649   1.520
 3955W        W 4436   2.906   8.502   3.118
 3956W        W 4437   3.619  10.158   1.252
 3957W        W 4438   2.246   9.450   2.736
 3958W        W 4439   1.123   9.416   2.515
 3959W        W 4440   2.327   8.680   0.893
 3960W        W 4441   2.204   9.170   0.997
 3961W        W 4442   0.547   8.590   2.471
 3962W        W 4443   0.532   8.466   3.393
 3963W        W 4444   0.422   7.383   1.552
 3964W        W 4445   2.190   7.730   2.113
 3965W        W 4446   1.838   7.915   3.276
 3966W        W 4447   2.193   8.064   0.454
 3967W        W 4448   3.376  10.457   3.208
 3968W        W 4449   2.343   7.538   3.247
 3969W        W 4450   3.362   9.839   3.369
 3970W        W 4451   2.792   8.006   2.965
 3971W        W 4452   2.592   7.944   1.235
 3972W        W 4453   2.985   9.078   3.639
 3973W        W 4454   0.725  10.654   1.625
 3974W        W 4455   1.383   8.371   0.611
 3975W        W 4456   0.952   7.655   3.275
 3976W        W 4457   3.004   8.139   0.956
 3977W        W 4458   3.371   8.621   0.901
 3978W        W 4459   1.114  10.838   3.372
 3979W        W 4460   1.040   7.374   0.607
 3980W        W 4461   3.361   7.908   1.642
 3981W        W 4462   3.511  10.157   0.087
 3982W        W 4463   0.418   9.360   1.789
 3983W        W 4464   2.335   7.947   0.019
 3984W        W 4465   3.469  10.279   1.739
 3985W        W 4466   3.508   7.473   2.489
 3986W        W 4467   1.953   8.685   3.043
 3987W        W 4468   2.046  10.024   0.746
 3988W        W 4469   2.446   9.318   3.486
 3989W        W 4470   2.120   7.295   1.795
 3990W        W 4471   0.732   8.198   1.858
 3991W        W 4472   0.286   9.398   2.632
 3992W        W 4473   2.145  10.591   1.338
 3993W        W 4474   3.339   8.188   2.210
 3994W        W 4475   1.976  10.535   2.977
 3995W        W 4476   3.319   9.594   0.182
 3996W        W 4477   1.754   9.077   1.243
 3997W        W 4478   3.606   7.588   2.984
 3998W        W 4479   1.755   9.423   2.578
 3999W        W 4480   1.972   8.309   2.023
 4000W        W 4481   2.824   8.607   0.861
 4001W        W 4482   3.111   8.340   0.503
 4002W        W 4483   2.920  10.380   0.892
 4003W        W 4484   2.754   9.983   1.688
 4004W        W 4485   2.650   9.062   0.666
 4005W        W 4486   2.083   9.272   1.652
 4006W        W 4487   2.964   9.060   1.719
 4007W        W 4488   0.339   8.075   2.143
 4008W        W 4489   3.117   9.127   2.970
 4009W        W 4490   3.468  10.745   2.116
 4010W        W 4491   1.398  10.189   1.518
 4011W        W 4492   2.405  10.722   2.842
 4012W        W 4493   2.399   8.052   2.606
 4013W        W 4494   1.606  10.760   2.667
 4014W        W 4495   3.303   7.714   1.133
 4015W        W 4496   3.094   9.033   2.434
 4016W        W 4497   0.077   8.354   2.472
 4017W        W 4498   2.937   8.149   1.490
 4018W        W 4499   3.348   8.300   3.267
 4019W        W 4500   2.233   9.999   1.485
 4020W        W 4501   1.489  10.590   1.098
 4021W        W 4502   0.604   7.770   0.356
 4022W        W 4503   1.708   7.424   2.166
 4023W        W 4504   0.736  10.544   0.014
 4024W        W 4505   1.110   9.010   0.765
 4025W        W 4506   1.764   9.639   3.078
 4026W        W 4507   1.594   7.997   1.068
 4027W        W 4508   2.950   7.594   1.496
 4028W        W 4509   2.670  10.876   1.824
 4029W        W 4510   2.082  10.524   2.164
 4030W        W 4511   1.478   9.561   2.125
 4031W        W 4512   3.248  10.284   2.251
 4032W        W 4513   0.942   7.787   1.020
 4033W        W 4514   1.464  10.084   1.980
 4034W        W 4515   0.947   8.015   0.045
 4035W        W 4516   1.748   8.624   2.439
 4036W        W 4517   2.596   7.490   2.309
 4037W        W 4518   0.016   9.333   2.194
 4038W        W 4519   1.720   9.151   0.352
 4039W        W 4520   0.988   7.466   0.122
 4040W        W 4521   1.726   8.547   1.173
 4041W        W 4522   2.696   7.523   2.872
 4042W        W 4523   1.284   9.535   2.981
 4043W        W 4524   2.088   9.317   3.198
 4044W        W 4525   2.705   9.347   3.091
 4045W        W 4526   1.989   7.487   3.596
 4046W        W 4527   1.211   8.103   1.989
 4047W        W 4528   0.637   8.059   1.387
 4048W        W 4529   0.423  10.771   1.063
 4049W        W 4530   1.755  10.101   3.188
 4050W        W 4531   0.790   9.586   0.547
 4051W        W 4532   2.470   8.971   1.768
 4052W        W 4533   2.750   8.770   2.167
 4053W        W 4534   1.955   9.444   2.101
 4054W        W 4535   2.425   9.818   0.233
 4055W        W 4536   2.097   7.839   1.561
 4056W        W 4537   3.576   8.117   0.829
 4057W        W 4538   0.070  10.706   2.860
 4058W        W 4539   0.487   9.932   2.392
 4059W        W 4540   0.054  10.778   0.624
 4060W        W 4541   1.953   8.048   2.430
 4061W        W 4542   1.316  10.071   0.279
 4062W        W 4543   3.221  10.453   0.465
 4063W        W 4544   2.196   9.106   0.479
 4064W        W 4545   1.039   8.297   0.996
 4065W        W 4546   1.871   8.207   0.048
 4066W        W 4547   2.455   9.772   3.226
 4067W        W 4548   2.808   7.678   0.843
 4068W        W 4549   0.138   7.526   0.291
 4069W        W 4550   1.424   9.845   2.581
 4070W        W 4551   1.223   9.761   1.673
 4071W        W 4552   0.965   9.713   0.071
 4072W        W 4553   0.206   9.954   0.839
 4073W        W 4554   0.710   9.024   3.281
 4074W        W 4555   1.414   7.584   3.467
 4075W        W 4556   2.123   7.726   2.823
 4076W        W 4557   1.318   7.494   1.104
 4077W        W 4558   2.377   7.571   0.609
 4078W        W 4559   0.322   7.503   2.186
 4079W        W 4560   0.370   8.466   1.556
 4080W        W 4561   3.059   7.574   1.962
 4081W        W 4562   0.481   8.072   0.776
 4082W        W 4563   3.052   7.760   2.392
 4083W        W 4564   3.448   8.963   0.077
 4084W        W 4565   0.740   7.721   1.896
 4085W        W 4566   1.854   8.293   2.836
 4086W        W 4567   0.002   7.983   0.314
 4087W        W 4568   0.788   9.372   2.875
 4088W        W 4569   2.146   8.770   2.054
 4089W        W 4570   2.013  10.849   0.350
 4090W        W 4571   0.159   9.356   0.047
 4091W        W 4572   0.894   9.767   3.173
 4092W        W 4573   0.415   8.934   2.804
 4093W        W 4574   1.406   9.039   2.598
 4094W        W 4575   3.174   7.398   2.860
 4095W        W 4576   3.572   9.008   2.851
 4096W        W 4577   3.560   9.208   0.537
 4097W        W 4578   2.423   9.540   0.636
 4098W        W 4579   2.897  10.840   0.331
 4099W        W 4580   2.074   8.830   3.473
 4100W        W 4581   0.404   9.797   3.513
 4101W        W 4582   3.610   7.719   3.465
 4102W        W 4583   3.328   8.647   2.086
 4103W        W 4584   1.636  10.777   3.563
 4104W        W 4585   1.491   7.406   0.290
 4105W        W 4586   3.030  10.005   0.233
 4106W        W 4587   0.799   8.098   3.119
 4107W        W 4588   1.233  10.092   2.981
 4108W        W 4589   3.359   8.083   2.779
 4109W        W 4590   2.570  10.742   0.747
 4110W        W 4591   2.809   9.361   2.114
 4111W        W 4592   1.059   7.777   2.781
 4112W        W 4593   1.528   8.846   3.538
 4113W        W 4594   1.031  10.025   0.732
 4114W        W 4595   2.786   9.523   0.996
 4115W        W 4596   0.554   8.149   2.720
 4116W        W 4597   1.883  10.211   1.184
 4117W        W 4598   3.633   8.771   1.365
 4118W        W 4599   1.855   7.404   3.084
 4119W        W 4600   2.635  10.109   2.163
 4120W        W 4601   2.938  10.453   1.871
 4121W        W 4602   2.157  10.255   0.299
 4122W        W 4603   0.167  10.147   3.141
 4123W        W 4604   0.910   8.139   2.379
 4124W        W 4605   0.880   7.487   1.489
 4125W        W 4606   2.501   8.329   2.181
 4126W        W 4607   1.299   9.500   0.381
 4127W        W 4608   3.297   9.442   1.880
 4128W        W 4609   0.624  10.200   3.303
 4129W        W 4610   3.011  10.882   1.100
 4130W        W 4611   1.110   7.902   1.545
 4131W        W 4612   0.879   9.395   1.635
 4132W        W 4613   1.192  10.806   2.385
 4133W        W 4614   3.259  10.902   3.417
 4134W        W 4615   2.418   9.090   2.350
 4135W        W 4616   0.267   8.888   0.265
 4136W        W 4617   3.401  10.546   0.962
 4137W        W 4618   3.238   7.870   0.581
 4138W        W 4619   1.377   7.389   2.984
 4139W        W 4620   3.083  10.191   1.442
 4140W        W 4621   3.112   8.747   1.347
 4141W        W 4622   1.229   8.420   1.563
 4142W        W 4623   1.474   8.682   2.887
 4143W        W 4624   2.585   9.835   2.750
 4144W        W 4625   1.235   8.289   2.862
 4145W        W 4626   1.214  10.755   1.478
 4146W        W 4627   0.531  10.714   3.112
 4147W        W 4628   0.643  10.075   0.242
 4148W        W 4629   3.160   9.833   1.052
 4149W        W 4630   0.764   8.625   2.938
 4150W        W 4631   3.537   8.555   0.419
 4151W        W 4632   1.282   9.612   0.890
 4152W        W 4633   2.381   8.994   2.971
 4153W        W 4634   2.272   8.622   2.515
 4154W        W 4635   0.832   8.994   2.544
 4155W        W 4636   3.042  10.882   2.373
 4156W        W 4637   2.833   7.516   3.367
 4157W        W 4638   0.497   7.666   2.954
 4158W        W 4639   0.836   8.689   2.007
 4159W        W 4640   1.205   8.503   0.129
 4160W        W 4641   0.008  10.262   2.674
 4161W        W 4642   1.593   8.971   2.117
 4162W        W 4643   1.416   7.996   0.222
 4163W        W 4644   0.551   8.812   1.003
 4164W        W 4645   0.322  10.664   2.440
 4165W        W 4646   3.117   8.890   0.548
 4166W        W 4647   3.212   7.806   3.234
 4167W        W 4648   2.648  10.015   1.197
 4168W        W 4649   0.246   8.939   3.374
 4169W        W 4650   3.212   7.403   0.670
 4170W        W 4651   2.732   9.878   0.681
 4171W        W 4652   1.634   8.936   0.766
 4172W        W 4653   2.821   7.740   0.289
 4173W        W 4654   0.595   8.940   1.682
 4174W        W 4655   0.889   9.879   1.331
 4175W        W 4656   2.652   8.499   1.296
 4176W        W 4657   1.675   7.878   1.992
 4177W        W 4658   3.637   9.789   2.503
 4178W        W 4659   3.555   7.776   2.064
 4179W        W 4660   0.094  10.606   1.440
 4180W        W 4661   0.603   9.793   0.976
 4181W        W 4662   0.518   7.410   3.529
 4182W        W 4663   1.637  10.263   3.631
 4183W        W 4664   3.392   9.231   1.421
 4184W        W 4665   2.746   9.408   0.301
 4185W        W 4666   2.041  10.929   2.513
 4186W        W 4667   2.898   9.651   3.550
 4187W        W 4668   1.713   7.361   0.830
 4188W        W 4669   2.426   8.230   1.689
 4189W        W 4670   1.365   7.779   0.662
 4190W        W 4671   1.169   9.263   3.511
 4191W        W 4672   2.163   8.244   1.225
 4192W        W 4673   2.368   9.654   2.347
 4193W        W 4674   0.522  10.259   2.782
 4194W        W 4675   1.113  10.242   3.505
 4195W        W 4676   0.964   8.039   0.519
 4196W        W 4677   2.481   8.181   0.844
 4197W        W 4678   2.439  10.289   3.081
 4198W        W 4679   1.124   8.881   1.680
 4199W        W 4680   0.779  10.579   2.545
 4200W        W 4681   3.524  10.696   0.146
 4201W        W 4682   0.387   9.368   3.142
 4202W        W 4683   2.382   9.630   1.830
 4203W        W 4684   0.818   9.279   1.072
 4204W        W 4685   1.189  10.286   2.467
 4205W        W 4686   1.567   7.705   1.508
 4206W        W 4687   0.178   9.689   0.438
 4207W        W 4688   1.697   8.640   0.308
 4208W        W 4689   0.343   9.189   1.327
 4209W        W 4690   1.633   7.831   2.791
 4210W        W 4691   3.305   7.540   0.218
 4211W        W 4692   3.398   9.286   3.317
 4212W        W 4693   2.052  10.543   3.469
 4213W        W 4694   3.610   9.637   2.991
 4214W        W 4695   3.018  10.435   3.602
 4215W        W 4696   0.757  10.891   2.080
 4216W        W 4697   3.616   9.513   0.954
 4217W        W 4698   2.146   8.780   1.467
 4218W        W 4699   1.913   7.392   1.357
 4219W        W 4700   0.972  10.376   1.194
 4220W        W 4701   1.471   8.117   2.419
 4221W        W 4702   1.171   7.486   1.888
 4222W        W 4703   0.234  10.308   0.436
 4223W        W 4704   2.050   9.672   1.154
 4224W        W 4705   0.925  10.467   3.033
 4225W        W 4706   0.402   9.290   0.729
 4226W        W 4707   0.287   7.833   1.728
 4227W        W 4708   1.835   9.798   1.785
 4228W        W 4709   2.751   8.858   2.732
 4229W        W 4710   2.628   8.244   0.304
 4230W        W 4711   3.145   9.916   1.952
 4231W        W 4712   1.806  10.400   1.783
 4232W        W 4713   1.218  10.504   0.694
 4233W        W 4714   0.300  10.667   1.865
 4234W        W 4715   2.497   8.425   3.500
 4235W        W 4716   0.480   7.955   3.499
 4236W        W 4717   0.211   8.555   0.832
 4237W        W 4718   0.902   8.544   0.557
 4238W        W 4719   2.665   8.871   3.374
 4239W        W 4720   1.008   9.152   2.083
 4240W        W 4721   2.482   7.438   1.203
 4241W        W 4722   1.613  10.869   1.706
 4242W        W 4723   2.827  10.331   2.643
 4243W        W 4724   2.411  10.480   1.754
 4244W        W 4725   2.430   9.460   1.348
 4245W        W 4726   1.892   7.685   0.419
 4246W        W 4727   3.573   7.313   1.141
 4247W        W 4728   1.261   8.948   0.304
 4248W        W 4729   3.427   8.285   1.294
 4249W        W 4730   2.119   9.455   0.171
 4250W        W 4731   3.055   9.655   2.919
 4251W        W 4732   2.709  10.356   0.386
 4252W        W 4733   1.324   8.031   3.292
 4253W        W 4734   1.144   8.615   2.533
 4254W        W 4735   3.236  10.110   2.810
 4255W        W 4736   2.336   8.060   3.187
 4256W        W 4737   0.180   8.531   2.964
 4257W        W 4738   1.940   9.008   2.690
 4258W        W 4739   0.444   9.063   2.237
 4259W        W 4740   2.761   9.349   2.587
 4260W        W 4741   2.533  10.729   3.398
 4261W        W 4742   2.429   8.468   2.951
 4262W        W 4743   2.706  10.522   1.356
 4263W        W 4744   1.708  10.242   2.679
 4264W        W 4745   1.193  10.597   1.948
 4265W        W 4746   2.998   9.768   2.367
 4266W        W 4747   2.048   9.840   3.504
 4267W        W 4748   0.653   9.793   1.843
 4268W        W 4749   2.999   9.552   1.488
 4269W        W 4750   2.640  10.618   2.239
 4270W        W 4751   0.618  10.347   2.109
 4271W        W 4752   1.639   8.399   3.319
 4272W        W 4753   2.090  10.565   0.830
 4273W        W 4754   1.398   9.820   3.468
 4274W        W 4755   1.524  10.058   0.845
 4275W        W 4756   0.745   8.798   0.104
 4276W        W 4757   0.084  10.884   7.003
 4277W        W 4758   0.460   9.777   6.526
 4278W        W 4759   3.165   9.507   4.296
 4279W        W 4760   3.295  10.592   6.323
 4280W        W 4761   1.213  10.583   3.849
 4281W        W 4762   1.296   8.735   4.832
 4282W        W 4763   0.811   8.583   4.996
 4283W        W 4764   1.802   9.398   4.430
 4284W        W 4765   1.477  10.490   6.785
 4285W        W 4766   0.126   8.051   6.748
 4286W        W 4767   0.888   7.331   6.550
 4287W        W 4768   2.582   7.719   5.437
 4288W        W 4769   2.231   8.590   4.007
 4289W        W 4770   2.801   8.024   7.098
 4290W        W 4771   0.167   7.816   6.223
 4291W        W 4772   1.788   9.825   3.976
 4292W        W 4773   0.220   8.608   5.669
 4293W        W 4774   1.113   8.499   6.906
 4294W        W 4775   3.572   8.358   5.405
 4295W        W 4776   3.336   9.401   6.264
 4296W        W 4777   1.644   8.734   5.291
 4297W        W 4778   2.190  10.073   5.660
 4298W        W 4779   0.690   9.507   5.892
 4299W        W 4780   0.049   9.035   5.463
 4300W        W 4781   1.085   9.007   6.655
 4301W        W 4782   3.356   8.790   6.909
 4302W        W 4783   0.972  10.234   5.354
 4303W        W 4784   2.093   9.923   6.488
 4304W        W 4785   1.313   8.563   5.713
 4305W        W 4786   1.605   9.347   5.356
 4306W        W 4787   2.602  10.120   7.204
 4307W        W 4788   1.681   9.440   7.214
 4308W        W 4789   1.662   9.156   6.692
 4309W        W 4790   0.071   8.547   7.214
 4310W        W 4791   2.903  10.082   6.813
 4311W        W 4792   0.484   7.664   4.811
 4312W        W 4793   1.011   9.922   5.810
 4313W        W 4794   3.474   9.705   5.100
 4314W        W 4795   2.887   8.105   5.667
 4315W        W 4796   3.172   8.058   3.762
 4316W        W 4797   3.637   8.859   6.068
 4317W        W 4798   1.604  10.566   5.821
 4318W        W 4799   3.378  10.032   4.259
 4319W        W 4800   0.507  10.818   4.013
 4320W        W 4801   0.900  10.864   4.689
 4321W        W 4802   0.697   7.618   6.115
 4322W        W 4803   3.320   8.636   6.390
 4323W        W 4804   2.691   8.746   3.876
 4324W        W 4805   1.899   9.890   6.016
 4325W        W 4806   1.705   8.220   5.215
 4326W        W 4807   2.305  10.307   6.209
 4327W        W 4808   3.176   9.098   4.631
 4328W        W 4809   2.078   7.756   4.647
 4329W        W 4810   0.106   7.949   4.929
 4330W        W 4811   2.892   8.556   5.403
 4331W        W 4812   0.350  10.173   5.318
 4332W        W 4813   1.691  10.523   4.188
 4333W        W 4814   3.083   8.549   3.652
 4334W        W 4815   0.106  10.307   5.816
 4335W        W 4816   0.897   9.879   6.296
 4336W        W 4817   1.270   9.239   4.915
 4337W        W 4818   1.292   7.644   6.008
 4338W        W 4819   3.521   7.406   5.305
 4339W        W 4820   0.740   9.278   3.773
 4340W        W 4821   0.395   8.311   3.952
 4341W        W 4822   0.457  10.267   4.746
 4342W        W 4823   1.588   9.750   4.994
 4343W        W 4824   2.920  10.609   6.708
 4344W        W 4825   1.846   8.251   4.392
 4345W        W 4826   3.229  10.649   5.164
 4346W        W 4827   2.906   8.502   6.762
 4347W        W 4828   3.619  10.158   4.896
 4348W        W 4829   2.246   9.450   6.380
 4349W        W 4830   0.012   9.001   4.586
 4350W        W 4831   1.123   9.416   6.159
 4351W        W 4832   2.327   8.680   4.537
 4352W        W 4833   2.204   9.170   4.641
 4353W        W 4834   0.547   8.590   6.115
 4354W        W 4835   0.532   8.466   7.037
 4355W        W 4836   0.422   7.383   5.196
 4356W        W 4837   2.190   7.730   5.757
 4357W        W 4838   1.838   7.915   6.920
 4358W        W 4839   2.193   8.064   4.098
 4359W        W 4840   3.376  10.457   6.852
 4360W        W 4841   2.343   7.538   6.891
 4361W        W 4842   3.362   9.839   7.013
 4362W        W 4843   2.792   8.006   6.609
 4363W        W 4844   2.592   7.944   4.879
 4364W        W 4845   2.985   9.078   7.283
 4365W        W 4846   0.725  10.654   5.269
 4366W        W 4847   1.383   8.371   4.255
 4367W        W 4848   0.952   7.655   6.919
 4368W        W 4849   3.004   8.139   4.600
 4369W        W 4850   3.371   8.621   4.545
 4370W        W 4851   1.114  10.838   7.016
 4371W        W 4852   1.040   7.374   4.251
 4372W        W 4853   3.361   7.908   5.286
 4373W        W 4854   3.511  10.157   3.731
 4374W        W 4855   0.418   9.360   5.433
 4375W        W 4856   2.335   7.947   3.663
 4376W        W 4857   3.469  10.279   5.383
 4377W        W 4858   3.508   7.473   6.133
 4378W        W 4859   1.953   8.685   6.687
 4379W        W 4860   2.046  10.024   4.390
 4380W        W 4861   2.446   9.318   7.130
 4381W        W 4862   2.120   7.295   5.439
 4382W        W 4863   0.732   8.198   5.502
 4383W        W 4864   0.286   9.398   6.276
 4384W        W 4865   2.145  10.591   4.982
 4385W        W 4866   3.339   8.188   5.854
 4386W        W 4867   1.976  10.535   6.621
 4387W        W 4868   3.319   9.594   3.826
 4388W        W 4869   1.754   9.077   4.887
 4389W        W 4870   3.606   7.588   6.628
 4390W        W 4871   1.755   9.423   6.222
 4391W        W 4872   1.972   8.309   5.667
 4392W        W 4873   2.824   8.607   4.505
 4393W        W 4874   3.111   8.340   4.147
 4394W        W 4875   2.920  10.380   4.536
 4395W        W 4876   2.754   9.983   5.332
 4396W        W 4877   2.650   9.062   4.310
 4397W        W 4878   2.083   9.272   5.296
 4398W        W 4879   2.964   9.060   5.363
 4399W        W 4880   0.339   8.075   5.787
 4400W        W 4881   3.117   9.127   6.614
 4401W        W 4882   3.468  10.745   5.760
 4402W        W 4883   1.398  10.189   5.162
 4403W        W 4884   2.405  10.722   6.486
 4404W        W 4885   2.399   8.052   6.250
 4405W        W 4886   1.606  10.760   6.311
 4406W        W 4887   3.303   7.714   4.777
 4407W        W 4888   3.094   9.033   6.078
 4408W        W 4889   0.077   8.354   6.116
 4409W        W 4890   2.937   8.149   5.134
 4410W        W 4891   2.233   9.999   5.129
 4411W        W 4892   1.489  10.590   4.742
 4412W        W 4893   0.604   7.770   4.000
 4413W        W 4894   1.708   7.424   5.810
 4414W        W 4895   0.736  10.544   3.658
 4415W        W 4896   1.110   9.010   4.409
 4416W        W 4897   1.764   9.639   6.722
 4417W        W 4898   1.594   7.997   4.712
 4418W        W 4899   2.950   7.594   5.140
 4419W        W 4900   2.670  10.876   5.468
 4420W        W 4901   2.082  10.524   5.808
 4421W        W 4902   1.478   9.561   5.769
 4422W        W 4903   3.248  10.284   5.895
 4423W        W 4904   0.942   7.787   4.664
 4424W        W 4905   1.464  10.084   5.624
 4425W        W 4906   0.947   8.015   3.689
 4426W        W 4907   1.748   8.624   6.083
 4427W        W 4908   2.596   7.490   5.953
 4428W        W 4909   0.016   9.333   5.838
 4429W        W 4910   1.720   9.151   3.996
 4430W        W 4911   0.988   7.466   3.766
 4431W        W 4912   1.726   8.547   4.817
 4432W        W 4913   2.696   7.523   6.516
 4433W        W 4914   1.284   9.535   6.625
 4434W        W 4915   2.088   9.317   6.842
 4435W        W 4916   1.989   7.487   7.240
 4436W        W 4917   1.211   8.103   5.633
 4437W        W 4918   0.637   8.059   5.031
 4438W        W 4919   0.423  10.771   4.707
 4439W        W 4920   1.755  10.101   6.832
 4440W        W 4921   0.790   9.586   4.191
 4441W        W 4922   2.470   8.971   5.412
 4442W        W 4923   2.750   8.770   5.811
 4443W        W 4924   1.955   9.444   5.745
 4444W        W 4925   2.425   9.818   3.877
 4445W        W 4926   2.097   7.839   5.205
 4446W        W 4927   3.576   8.117   4.473
 4447W        W 4928   0.070  10.706   6.504
 4448W        W 4929   0.487   9.932   6.036
 4449W        W 4930   0.054  10.778   4.268
 4450W        W 4931   1.953   8.048   6.074
 4451W        W 4932   1.316  10.071   3.923
 4452W        W 4933   3.221  10.453   4.109
 4453W        W 4934   2.196   9.106   4.123
 4454W        W 4935   1.039   8.297   4.640
 4455W        W 4936   1.871   8.207   3.692
 4456W        W 4937   2.455   9.772   6.870
 4457W        W 4938   2.808   7.678   4.487
 4458W        W 4939   0.138   7.526   3.935
 4459W        W 4940   1.424   9.845   6.225
 4460W        W 4941   1.223   9.761   5.317
 4461W        W 4942   0.965   9.713   3.715
 4462W        W 4943   0.206   9.954   4.483
 4463W        W 4944   0.710   9.024   6.925
 4464W        W 4945   1.414   7.584   7.111
 4465W        W 4946   2.123   7.726   6.467
 4466W        W 4947   1.318   7.494   4.748
 4467W        W 4948   2.377   7.571   4.253
 4468W        W 4949   0.322   7.503   5.830
 4469W        W 4950   0.370   8.466   5.200
 4470W        W 4951   3.059   7.574   5.606
 4471W        W 4952   0.481   8.072   4.420
 4472W        W 4953   3.052   7.760   6.036
 4473W        W 4954   3.448   8.963   3.721
 4474W        W 4955   0.740   7.721   5.540
 4475W        W 4956   1.854   8.293   6.480
 4476W        W 4957   0.002   7.983   3.958
 4477W        W 4958   0.788   9.372   6.519
 4478W        W 4959   2.146   8.770   5.698
 4479W        W 4960   2.013  10.849   3.994
 4480W        W 4961   0.159   9.356   3.691
 4481W        W 4962   0.894   9.767   6.817
 4482W        W 4963   0.415   8.934   6.448
 4483W        W 4964   1.406   9.039   6.242
 4484W        W 4965   3.174   7.398   6.504
 4485W        W 4966   3.572   9.008   6.495
 4486W        W 4967   3.560   9.208   4.181
 4487W        W 4968   2.423   9.540   4.280
 4488W        W 4969   2.897  10.840   3.975
 4489W        W 4970   2.074   8.830   7.117
 4490W        W 4971   0.404   9.797   7.157
 4491W        W 4972   3.610   7.719   7.109
 4492W        W 4973   3.328   8.647   5.730
 4493W        W 4974   1.636  10.777   7.207
 4494W        W 4975   1.491   7.406   3.934
 4495W        W 4976   3.030  10.005   3.877
 4496W        W 4977   1.233  10.092   6.625
 4497W        W 4978   3.359   8.083   6.423
 4498W        W 4979   2.570  10.742   4.391
 4499W        W 4980   2.809   9.361   5.758
 4500W        W 4981   1.059   7.777   6.425
 4501W        W 4982   1.528   8.846   7.182
 4502W        W 4983   1.031  10.025   4.376
 4503W        W 4984   2.786   9.523   4.640
 4504W        W 4985   0.554   8.149   6.364
 4505W        W 4986   1.883  10.211   4.828
 4506W        W 4987   1.855   7.404   6.728
 4507W        W 4988   2.635  10.109   5.807
 4508W        W 4989   2.938  10.453   5.515
 4509W        W 4990   2.157  10.255   3.943
 4510W        W 4991   0.167  10.147   6.785
 4511W        W 4992   0.910   8.139   6.023
 4512W        W 4993   0.880   7.487   5.133
 4513W        W 4994   2.501   8.329   5.825
 4514W        W 4995   1.299   9.500   4.025
 4515W        W 4996   3.297   9.442   5.524
 4516W        W 4997   0.624  10.200   6.947
 4517W        W 4998   3.011  10.882   4.744
 4518W        W 4999   1.110   7.902   5.189
 4519W        W 5000   0.879   9.395   5.279
 4520W        W 5001   1.192  10.806   6.029
 4521W        W 5002   3.259  10.902   7.061
 4522W        W 5003   2.418   9.090   5.994
 4523W        W 5004   0.267   8.888   3.909
 4524W        W 5005   3.401  10.546   4.606
 4525W        W 5006   3.238   7.870   4.225
 4526W        W 5007   1.377   7.389   6.628
 4527W        W 5008   3.083  10.191   5.086
 4528W        W 5009   3.112   8.747   4.991
 4529W        W 5010   1.229   8.420   5.207
 4530W        W 5011   1.474   8.682   6.531
 4531W        W 5012   2.585   9.835   6.394
 4532W        W 5013   1.235   8.289   6.506
 4533W        W 5014   1.214  10.755   5.122
 4534W        W 5015   0.531  10.714   6.756
 4535W        W 5016   0.643  10.075   3.886
 4536W        W 5017   3.160   9.833   4.696
 4537W        W 5018   0.764   8.625   6.582
 4538W        W 5019   3.537   8.555   4.063
 4539W        W 5020   1.282   9.612   4.534
 4540W        W 5021   2.381   8.994   6.615
 4541W        W 5022   2.272   8.622   6.159
 4542W        W 5023   0.832   8.994   6.188
 4543W        W 5024   3.042  10.882   6.017
 4544W        W 5025   2.833   7.516   7.011
 4545W        W 5026   0.497   7.666   6.598
 4546W        W 5027   0.836   8.689   5.651
 4547W        W 5028   1.205   8.503   3.773
 4548W        W 5029   0.008  10.262   6.318
 4549W        W 5030   1.593   8.971   5.761
 4550W        W 5031   1.416   7.996   3.866
 4551W        W 5032   0.551   8.812   4.647
 4552W        W 5033   0.322  10.664   6.084
 4553W        W 5034   3.117   8.890   4.192
 4554W        W 5035   3.212   7.806   6.878
 4555W        W 5036   2.648  10.015   4.841
 4556W        W 5037   3.212   7.403   4.314
 4557W        W 5038   2.732   9.878   4.325
 4558W        W 5039   1.634   8.936   4.410
 4559W        W 5040   2.821   7.740   3.933
 4560W        W 5041   2.886   8.347   6.119
 4561W        W 5042   0.595   8.940   5.326
 4562W        W 5043   0.889   9.879   4.975
 4563W        W 5044   2.652   8.499   4.940
 4564W        W 5045   1.675   7.878   5.636
 4565W        W 5046   3.637   9.789   6.147
 4566W        W 5047   3.555   7.776   5.708
 4567W        W 5048   0.094  10.606   5.084
 4568W        W 5049   0.603   9.793   4.620
 4569W        W 5050   0.518   7.410   7.173
 4570W        W 5051   1.637  10.263   7.275
 4571W        W 5052   3.392   9.231   5.065
 4572W        W 5053   2.746   9.408   3.945
 4573W        W 5054   2.041  10.929   6.157
 4574W        W 5055   2.898   9.651   7.194
 4575W        W 5056   1.713   7.361   4.474
 4576W        W 5057   2.426   8.230   5.333
 4577W        W 5058   0.112   9.817   5.665
 4578W        W 5059   1.365   7.779   4.306
 4579W        W 5060   1.169   9.263   7.155
 4580W        W 5061   2.163   8.244   4.869
 4581W        W 5062   2.368   9.654   5.991
 4582W        W 5063   0.522  10.259   6.426
 4583W        W 5064   1.113  10.242   7.149
 4584W        W 5065   0.964   8.039   4.163
 4585W        W 5066   2.481   8.181   4.488
 4586W        W 5067   2.439  10.289   6.725
 4587W        W 5068   1.124   8.881   5.324
 4588W        W 5069   0.779  10.579   6.189
 4589W        W 5070   3.524  10.696   3.790
 4590W        W 5071   0.387   9.368   6.786
 4591W        W 5072   2.382   9.630   5.474
 4592W        W 5073   0.818   9.279   4.716
 4593W        W 5074   1.189  10.286   6.111
 4594W        W 5075   1.567   7.705   5.152
 4595W        W 5076   0.178   9.689   4.082
 4596W        W 5077   1.697   8.640   3.952
 4597W        W 5078   0.343   9.189   4.971
 4598W        W 5079   1.633   7.831   6.435
 4599W        W 5080   3.305   7.540   3.862
 4600W        W 5081   3.398   9.286   6.961
 4601W        W 5082   2.052  10.543   7.113
 4602W        W 5083   3.610   9.637   6.635
 4603W        W 5084   3.018  10.435   7.246
 4604W        W 5085   0.757  10.891   5.724
 4605W        W 5086   3.616   9.513   4.598
 4606W        W 5087   2.146   8.780   5.111
 4607W        W 5088   1.913   7.392   5.001
 4608W        W 5089   0.972  10.376   4.838
 4609W        W 5090   1.471   8.117   6.063
 4610W        W 5091   1.171   7.486   5.532
 4611W        W 5092   0.234  10.308   4.080
 4612W        W 5093   2.050   9.672   4.798
 4613W        W 5094   0.925  10.467   6.677
 4614W        W 5095   0.402   9.290   4.373
 4615W        W 5096   0.287   7.833   5.372
 4616W        W 5097   1.835   9.798   5.429
 4617W        W 5098   0.087   7.652   4.449
 4618W        W 5099   2.751   8.858   6.376
 4619W        W 5100   2.628   8.244   3.948
 4620W        W 5101   3.145   9.916   5.596
 4621W        W 5102   1.806  10.400   5.427
 4622W        W 5103   1.218  10.504   4.338
 4623W        W 5104   2.500   7.407   3.768
 4624W        W 5105   0.300  10.667   5.509
 4625W        W 5106   2.497   8.425   7.144
 4626W        W 5107   0.211   8.555   4.476
 4627W        W 5108   0.902   8.544   4.201
 4628W        W 5109   2.665   8.871   7.018
 4629W        W 5110   1.008   9.152   5.727
 4630W        W 5111   2.482   7.438   4.847
 4631W        W 5112   1.613  10.869   5.350
 4632W        W 5113   2.827  10.331   6.287
 4633W        W 5114   2.411  10.480   5.398
 4634W        W 5115   2.430   9.460   4.992
 4635W        W 5116   1.892   7.685   4.063
 4636W        W 5117   3.573   7.313   4.785
 4637W        W 5118   1.261   8.948   3.948
 4638W        W 5119   3.427   8.285   4.938
 4639W        W 5120   2.119   9.455   3.815
 4640W        W 5121   3.055   9.655   6.563
 4641W        W 5122   2.709  10.356   4.030
 4642W        W 5123   1.324   8.031   6.936
 4643W        W 5124   1.144   8.615   6.177
 4644W        W 5125   3.236  10.110   6.454
 4645W        W 5126   2.336   8.060   6.831
 4646W        W 5127   0.180   8.531   6.608
 4647W        W 5128   1.940   9.008   6.334
 4648W        W 5129   0.297   9.766   4.991
 4649W        W 5130   0.444   9.063   5.881
 4650W        W 5131   2.761   9.349   6.231
 4651W        W 5132   2.533  10.729   7.042
 4652W        W 5133   2.429   8.468   6.595
 4653W        W 5134   2.706  10.522   5.000
 4654W        W 5135   1.708  10.242   6.323
 4655W        W 5136   1.193  10.597   5.592
 4656W        W 5137   2.998   9.768   6.011
 4657W        W 5138   2.048   9.840   7.148
 4658W        W 5139   0.653   9.793   5.487
 4659W        W 5140   2.999   9.552   5.132
 4660W        W 5141   2.640  10.618   5.883
 4661W        W 5142   0.618  10.347   5.753
 4662W        W 5143   1.639   8.399   6.963
 4663W        W 5144   2.090  10.565   4.474
 4664W        W 5145   1.398   9.820   7.112
 4665W        W 5146   1.524  10.058   4.489
 4666W        W 5147   0.745   8.798   3.748
 4667W        W 5148   0.084  10.884  10.648
 4668W        W 5149   0.460   9.777  10.171
 4669W        W 5150   3.165   9.507   7.941
 4670W        W 5151   3.295  10.592   9.968
 4671W        W 5152   1.213  10.583   7.494
 4672W        W 5153   1.296   8.735   8.477
 4673W        W 5154   0.811   8.583   8.641
 4674W        W 5155   1.802   9.398   8.075
 4675W        W 5156   1.477  10.490  10.430
 4676W        W 5157   0.126   8.051  10.393
 4677W        W 5158   0.888   7.331  10.195
 4678W        W 5159   2.582   7.719   9.082
 4679W        W 5160   2.231   8.590   7.652
 4680W        W 5161   2.801   8.024  10.743
 4681W        W 5162   0.167   7.816   9.868
 4682W        W 5163   0.266  10.435  10.889
 4683W        W 5164   1.788   9.825   7.621
 4684W        W 5165   0.220   8.608   9.314
 4685W        W 5166   1.113   8.499  10.551
 4686W        W 5167   3.572   8.358   9.050
 4687W        W 5168   3.336   9.401   9.909
 4688W        W 5169   1.644   8.734   8.936
 4689W        W 5170   2.190  10.073   9.305
 4690W        W 5171   0.690   9.507   9.537
 4691W        W 5172   0.049   9.035   9.108
 4692W        W 5173   1.085   9.007  10.300
 4693W        W 5174   3.356   8.790  10.554
 4694W        W 5175   0.972  10.234   8.999
 4695W        W 5176   2.093   9.923  10.133
 4696W        W 5177   1.313   8.563   9.358
 4697W        W 5178   1.605   9.347   9.001
 4698W        W 5179   2.602  10.120  10.849
 4699W        W 5180   1.681   9.440  10.859
 4700W        W 5181   1.662   9.156  10.337
 4701W        W 5182   0.071   8.547  10.859
 4702W        W 5183   2.903  10.082  10.458
 4703W        W 5184   0.484   7.664   8.456
 4704W        W 5185   1.011   9.922   9.455
 4705W        W 5186   3.474   9.705   8.745
 4706W        W 5187   2.887   8.105   9.312
 4707W        W 5188   3.172   8.058   7.407
 4708W        W 5189   3.637   8.859   9.713
 4709W        W 5190   1.604  10.566   9.466
 4710W        W 5191   3.378  10.032   7.904
 4711W        W 5192   0.507  10.818   7.658
 4712W        W 5193   0.900  10.864   8.334
 4713W        W 5194   0.697   7.618   9.760
 4714W        W 5195   3.320   8.636  10.035
 4715W        W 5196   2.725   9.058   8.494
 4716W        W 5197   2.691   8.746   7.521
 4717W        W 5198   1.705   8.220   8.860
 4718W        W 5199   2.305  10.307   9.854
 4719W        W 5200   3.176   9.098   8.276
 4720W        W 5201   2.078   7.756   8.292
 4721W        W 5202   0.735  10.450   7.975
 4722W        W 5203   0.106   7.949   8.574
 4723W        W 5204   2.892   8.556   9.048
 4724W        W 5205   0.350  10.173   8.963
 4725W        W 5206   1.691  10.523   7.833
 4726W        W 5207   3.083   8.549   7.297
 4727W        W 5208   0.106  10.307   9.461
 4728W        W 5209   0.897   9.879   9.941
 4729W        W 5210   1.270   9.239   8.560
 4730W        W 5211   1.292   7.644   9.653
 4731W        W 5212   3.521   7.406   8.950
 4732W        W 5213   0.740   9.278   7.418
 4733W        W 5214   0.395   8.311   7.597
 4734W        W 5215   0.457  10.267   8.391
 4735W        W 5216   1.588   9.750   8.639
 4736W        W 5217   2.920  10.609  10.353
 4737W        W 5218   1.846   8.251   8.037
 4738W        W 5219   3.229  10.649   8.809
 4739W        W 5220   2.906   8.502  10.407
 4740W        W 5221   3.619  10.158   8.541
 4741W        W 5222   2.246   9.450  10.025
 4742W        W 5223   0.012   9.001   8.231
 4743W        W 5224   1.123   9.416   9.804
 4744W        W 5225   2.327   8.680   8.182
 4745W        W 5226   2.204   9.170   8.286
 4746W        W 5227   0.547   8.590   9.760
 4747W        W 5228   0.532   8.466  10.682
 4748W        W 5229   0.422   7.383   8.841
 4749W        W 5230   2.190   7.730   9.402
 4750W        W 5231   1.838   7.915  10.565
 4751W        W 5232   2.193   8.064   7.743
 4752W        W 5233   3.376  10.457  10.497
 4753W        W 5234   2.343   7.538  10.536
 4754W        W 5235   3.362   9.839  10.658
 4755W        W 5236   2.792   8.006  10.254
 4756W        W 5237   2.592   7.944   8.524
 4757W        W 5238   2.985   9.078  10.928
 4758W        W 5239   0.725  10.654   8.914
 4759W        W 5240   1.383   8.371   7.900
 4760W        W 5241   0.952   7.655  10.564
 4761W        W 5242   3.004   8.139   8.245
 4762W        W 5243   3.371   8.621   8.190
 4763W        W 5244   1.114  10.838  10.661
 4764W        W 5245   1.040   7.374   7.896
 4765W        W 5246   3.361   7.908   8.931
 4766W        W 5247   3.511  10.157   7.376
 4767W        W 5248   0.418   9.360   9.078
 4768W        W 5249   2.335   7.947   7.308
 4769W        W 5250   3.469  10.279   9.028
 4770W        W 5251   3.508   7.473   9.778
 4771W        W 5252   1.953   8.685  10.332
 4772W        W 5253   2.046  10.024   8.035
 4773W        W 5254   2.446   9.318  10.775
 4774W        W 5255   2.120   7.295   9.084
 4775W        W 5256   0.732   8.198   9.147
 4776W        W 5257   0.286   9.398   9.921
 4777W        W 5258   2.145  10.591   8.627
 4778W        W 5259   3.339   8.188   9.499
 4779W        W 5260   1.976  10.535  10.266
 4780W        W 5261   3.319   9.594   7.471
 4781W        W 5262   1.754   9.077   8.532
 4782W        W 5263   3.606   7.588  10.273
 4783W        W 5264   1.755   9.423   9.867
 4784W        W 5265   1.972   8.309   9.312
 4785W        W 5266   2.824   8.607   8.150
 4786W        W 5267   3.111   8.340   7.792
 4787W        W 5268   2.920  10.380   8.181
 4788W        W 5269   2.754   9.983   8.977
 4789W        W 5270   2.650   9.062   7.955
 4790W        W 5271   2.083   9.272   8.941
 4791W        W 5272   2.964   9.060   9.008
 4792W        W 5273   0.339   8.075   9.432
 4793W        W 5274   3.117   9.127  10.259
 4794W        W 5275   3.468  10.745   9.405
 4795W        W 5276   1.398  10.189   8.807
 4796W        W 5277   2.405  10.722  10.131
 4797W        W 5278   1.606  10.760   9.956
 4798W        W 5279   3.303   7.714   8.422
 4799W        W 5280   3.094   9.033   9.723
 4800W        W 5281   0.077   8.354   9.761
 4801W        W 5282   2.937   8.149   8.779
 4802W        W 5283   3.348   8.300  10.556
 4803W        W 5284   2.233   9.999   8.774
 4804W        W 5285   1.489  10.590   8.387
 4805W        W 5286   0.604   7.770   7.645
 4806W        W 5287   1.708   7.424   9.455
 4807W        W 5288   0.736  10.544   7.303
 4808W        W 5289   1.110   9.010   8.054
 4809W        W 5290   1.764   9.639  10.367
 4810W        W 5291   1.594   7.997   8.357
 4811W        W 5292   2.950   7.594   8.785
 4812W        W 5293   2.670  10.876   9.113
 4813W        W 5294   2.082  10.524   9.453
 4814W        W 5295   1.478   9.561   9.414
 4815W        W 5296   3.248  10.284   9.540
 4816W        W 5297   0.942   7.787   8.309
 4817W        W 5298   1.464  10.084   9.269
 4818W        W 5299   0.947   8.015   7.334
 4819W        W 5300   1.748   8.624   9.728
 4820W        W 5301   2.596   7.490   9.598
 4821W        W 5302   0.016   9.333   9.483
 4822W        W 5303   1.720   9.151   7.641
 4823W        W 5304   0.988   7.466   7.411
 4824W        W 5305   1.726   8.547   8.462
 4825W        W 5306   2.696   7.523  10.161
 4826W        W 5307   1.284   9.535  10.270
 4827W        W 5308   2.088   9.317  10.487
 4828W        W 5309   2.705   9.347  10.380
 4829W        W 5310   1.989   7.487  10.885
 4830W        W 5311   1.211   8.103   9.278
 4831W        W 5312   0.637   8.059   8.676
 4832W        W 5313   0.423  10.771   8.352
 4833W        W 5314   1.755  10.101  10.477
 4834W        W 5315   0.790   9.586   7.836
 4835W        W 5316   2.470   8.971   9.057
 4836W        W 5317   2.750   8.770   9.456
 4837W        W 5318   1.955   9.444   9.390
 4838W        W 5319   2.425   9.818   7.522
 4839W        W 5320   2.097   7.839   8.850
 4840W        W 5321   3.576   8.117   8.118
 4841W        W 5322   0.070  10.706  10.149
 4842W        W 5323   0.487   9.932   9.681
 4843W        W 5324   0.054  10.778   7.913
 4844W        W 5325   1.953   8.048   9.719
 4845W        W 5326   1.316  10.071   7.568
 4846W        W 5327   3.221  10.453   7.754
 4847W        W 5328   2.196   9.106   7.768
 4848W        W 5329   1.039   8.297   8.285
 4849W        W 5330   1.871   8.207   7.337
 4850W        W 5331   2.455   9.772  10.515
 4851W        W 5332   2.808   7.678   8.132
 4852W        W 5333   0.138   7.526   7.580
 4853W        W 5334   1.424   9.845   9.870
 4854W        W 5335   1.223   9.761   8.962
 4855W        W 5336   0.965   9.713   7.360
 4856W        W 5337   0.206   9.954   8.128
 4857W        W 5338   0.710   9.024  10.570
 4858W        W 5339   1.414   7.584  10.756
 4859W        W 5340   2.123   7.726  10.112
 4860W        W 5341   1.318   7.494   8.393
 4861W        W 5342   2.377   7.571   7.898
 4862W        W 5343   0.322   7.503   9.475
 4863W        W 5344   0.370   8.466   8.845
 4864W        W 5345   3.059   7.574   9.251
 4865W        W 5346   0.481   8.072   8.065
 4866W        W 5347   3.052   7.760   9.681
 4867W        W 5348   3.448   8.963   7.366
 4868W        W 5349   0.740   7.721   9.185
 4869W        W 5350   1.854   8.293  10.125
 4870W        W 5351   0.002   7.983   7.603
 4871W        W 5352   0.788   9.372  10.164
 4872W        W 5353   2.146   8.770   9.343
 4873W        W 5354   2.013  10.849   7.639
 4874W        W 5355   0.159   9.356   7.336
 4875W        W 5356   0.894   9.767  10.462
 4876W        W 5357   0.415   8.934  10.093
 4877W        W 5358   1.406   9.039   9.887
 4878W        W 5359   3.174   7.398  10.149
 4879W        W 5360   3.572   9.008  10.140
 4880W        W 5361   3.560   9.208   7.826
 4881W        W 5362   2.423   9.540   7.925
 4882W        W 5363   2.897  10.840   7.620
 4883W        W 5364   2.074   8.830  10.762
 4884W        W 5365   0.404   9.797  10.802
 4885W        W 5366   3.610   7.719  10.754
 4886W        W 5367   3.328   8.647   9.375
 4887W        W 5368   1.636  10.777  10.852
 4888W        W 5369   1.491   7.406   7.579
 4889W        W 5370   3.030  10.005   7.522
 4890W        W 5371   0.799   8.098  10.408
 4891W        W 5372   1.233  10.092  10.270
 4892W        W 5373   3.359   8.083  10.068
 4893W        W 5374   2.570  10.742   8.036
 4894W        W 5375   2.809   9.361   9.403
 4895W        W 5376   1.059   7.777  10.070
 4896W        W 5377   1.528   8.846  10.827
 4897W        W 5378   1.031  10.025   8.021
 4898W        W 5379   2.786   9.523   8.285
 4899W        W 5380   0.554   8.149  10.009
 4900W        W 5381   1.883  10.211   8.473
 4901W        W 5382   3.633   8.771   8.654
 4902W        W 5383   1.855   7.404  10.373
 4903W        W 5384   2.635  10.109   9.452
 4904W        W 5385   2.938  10.453   9.160
 4905W        W 5386   2.157  10.255   7.588
 4906W        W 5387   0.167  10.147  10.430
 4907W        W 5388   0.910   8.139   9.668
 4908W        W 5389   0.880   7.487   8.778
 4909W        W 5390   2.501   8.329   9.470
 4910W        W 5391   1.299   9.500   7.670
 4911W        W 5392   3.297   9.442   9.169
 4912W        W 5393   0.624  10.200  10.592
 4913W        W 5394   3.011  10.882   8.389
 4914W        W 5395   1.110   7.902   8.834
 4915W        W 5396   0.879   9.395   8.924
 4916W        W 5397   1.192  10.806   9.674
 4917W        W 5398   3.259  10.902  10.706
 4918W        W 5399   2.418   9.090   9.639
 4919W        W 5400   0.267   8.888   7.554
 4920W        W 5401   3.401  10.546   8.251
 4921W        W 5402   3.238   7.870   7.870
 4922W        W 5403   1.377   7.389  10.273
 4923W        W 5404   3.083  10.191   8.731
 4924W        W 5405   3.112   8.747   8.636
 4925W        W 5406   1.229   8.420   8.852
 4926W        W 5407   1.474   8.682  10.176
 4927W        W 5408   2.585   9.835  10.039
 4928W        W 5409   1.235   8.289  10.151
 4929W        W 5410   1.214  10.755   8.767
 4930W        W 5411   0.531  10.714  10.401
 4931W        W 5412   0.643  10.075   7.531
 4932W        W 5413   3.160   9.833   8.341
 4933W        W 5414   0.764   8.625  10.227
 4934W        W 5415   3.537   8.555   7.708
 4935W        W 5416   1.282   9.612   8.179
 4936W        W 5417   2.381   8.994  10.260
 4937W        W 5418   2.272   8.622   9.804
 4938W        W 5419   0.832   8.994   9.833
 4939W        W 5420   3.042  10.882   9.662
 4940W        W 5421   2.833   7.516  10.656
 4941W        W 5422   0.497   7.666  10.243
 4942W        W 5423   0.836   8.689   9.296
 4943W        W 5424   1.205   8.503   7.418
 4944W        W 5425   0.008  10.262   9.963
 4945W        W 5426   1.593   8.971   9.406
 4946W        W 5427   1.416   7.996   7.511
 4947W        W 5428   0.551   8.812   8.292
 4948W        W 5429   0.322  10.664   9.729
 4949W        W 5430   3.117   8.890   7.837
 4950W        W 5431   3.212   7.806  10.523
 4951W        W 5432   2.648  10.015   8.486
 4952W        W 5433   0.246   8.939  10.663
 4953W        W 5434   3.212   7.403   7.959
 4954W        W 5435   2.732   9.878   7.970
 4955W        W 5436   1.634   8.936   8.055
 4956W        W 5437   2.821   7.740   7.578
 4957W        W 5438   2.886   8.347   9.764
 4958W        W 5439   0.595   8.940   8.971
 4959W        W 5440   0.889   9.879   8.620
 4960W        W 5441   2.652   8.499   8.585
 4961W        W 5442   1.675   7.878   9.281
 4962W        W 5443   3.637   9.789   9.792
 4963W        W 5444   3.555   7.776   9.353
 4964W        W 5445   0.094  10.606   8.729
 4965W        W 5446   0.603   9.793   8.265
 4966W        W 5447   0.518   7.410  10.818
 4967W        W 5448   1.637  10.263  10.920
 4968W        W 5449   3.392   9.231   8.710
 4969W        W 5450   2.746   9.408   7.590
 4970W        W 5451   2.041  10.929   9.802
 4971W        W 5452   2.898   9.651  10.839
 4972W        W 5453   1.713   7.361   8.119
 4973W        W 5454   2.426   8.230   8.978
 4974W        W 5455   0.112   9.817   9.310
 4975W        W 5456   1.365   7.779   7.951
 4976W        W 5457   1.169   9.263  10.800
 4977W        W 5458   2.163   8.244   8.514
 4978W        W 5459   2.368   9.654   9.636
 4979W        W 5460   0.522  10.259  10.071
 4980W        W 5461   1.113  10.242  10.794
 4981W        W 5462   0.964   8.039   7.808
 4982W        W 5463   2.481   8.181   8.133
 4983W        W 5464   2.439  10.289  10.370
 4984W        W 5465   1.124   8.881   8.969
 4985W        W 5466   0.779  10.579   9.834
 4986W        W 5467   3.524  10.696   7.435
 4987W        W 5468   0.387   9.368  10.431
 4988W        W 5469   2.382   9.630   9.119
 4989W        W 5470   0.818   9.279   8.361
 4990W        W 5471   1.189  10.286   9.756
 4991W        W 5472   1.567   7.705   8.797
 4992W        W 5473   0.178   9.689   7.727
 4993W        W 5474   1.697   8.640   7.597
 4994W        W 5475   0.343   9.189   8.616
 4995W        W 5476   1.633   7.831  10.080
 4996W        W 5477   3.305   7.540   7.507
 4997W        W 5478   3.398   9.286  10.606
 4998W        W 5479   2.052  10.543  10.758
 4999W        W 5480   3.610   9.637  10.280
 5000W        W 5481   3.018  10.435  10.891
 5001W        W 5482   0.757  10.891   9.369
 5002W        W 5483   3.616   9.513   8.243
 5003W        W 5484   2.146   8.780   8.756
 5004W        W 5485   1.913   7.392   8.646
 5005W        W 5486   0.972  10.376   8.483
 5006W        W 5487   1.471   8.117   9.708
 5007W        W 5488   1.171   7.486   9.177
 5008W        W 5489   0.234  10.308   7.725
 5009W        W 5490   2.050   9.672   8.443
 5010W        W 5491   0.925  10.467  10.322
 5011W        W 5492   0.402   9.290   8.018
 5012W        W 5493   0.287   7.833   9.017
 5013W        W 5494   1.835   9.798   9.074
 5014W        W 5495   0.087   7.652   8.094
 5015W        W 5496   2.751   8.858  10.021
 5016W        W 5497   2.628   8.244   7.593
 5017W        W 5498   3.145   9.916   9.241
 5018W        W 5499   1.806  10.400   9.072
 5019W        W 5500   1.218  10.504   7.983
 5020W        W 5501   2.500   7.407   7.413
 5021W        W 5502   2.497   8.425  10.789
 5022W        W 5503   0.480   7.955  10.788
 5023W        W 5504   0.211   8.555   8.121
 5024W        W 5505   2.665   8.871  10.663
 5025W        W 5506   1.008   9.152   9.372
 5026W        W 5507   2.482   7.438   8.492
 5027W        W 5508   1.613  10.869   8.995
 5028W        W 5509   2.827  10.331   9.932
 5029W        W 5510   2.411  10.480   9.043
 5030W        W 5511   2.430   9.460   8.637
 5031W        W 5512   1.892   7.685   7.708
 5032W        W 5513   3.573   7.313   8.430
 5033W        W 5514   1.261   8.948   7.593
 5034W        W 5515   3.427   8.285   8.583
 5035W        W 5516   2.119   9.455   7.460
 5036W        W 5517   3.055   9.655  10.208
 5037W        W 5518   2.709  10.356   7.675
 5038W        W 5519   1.324   8.031  10.581
 5039W        W 5520   1.144   8.615   9.822
 5040W        W 5521   3.236  10.110  10.099
 5041W        W 5522   2.336   8.060  10.476
 5042W        W 5523   0.180   8.531  10.253
 5043W        W 5524   1.940   9.008   9.979
 5044W        W 5525   0.297   9.766   8.636
 5045W        W 5526   0.444   9.063   9.526
 5046W        W 5527   2.761   9.349   9.876
 5047W        W 5528   2.533  10.729  10.687
 5048W        W 5529   2.429   8.468  10.240
 5049W        W 5530   2.706  10.522   8.645
 5050W        W 5531   1.193  10.597   9.237
 5051W        W 5532   2.998   9.768   9.656
 5052W        W 5533   2.048   9.840  10.793
 5053W        W 5534   0.653   9.793   9.132
 5054W        W 5535   2.999   9.552   8.777
 5055W        W 5536   2.640  10.618   9.528
 5056W        W 5537   0.618  10.347   9.398
 5057W        W 5538   1.639   8.399  10.608
 5058W        W 5539   2.090  10.565   8.119
 5059W        W 5540   1.398   9.820  10.757
 5060W        W 5541   1.524  10.058   8.134
 5061W        W 5542   0.745   8.798   7.393
 5062W        W 5543   0.084  10.884  14.292
 5063W        W 5544   0.460   9.777  13.815
 5064W        W 5545   3.165   9.507  11.585
 5065W        W 5546   3.295  10.592  13.612
 5066W        W 5547   1.213  10.583  11.138
 5067W        W 5548   1.296   8.735  12.121
 5068W        W 5549   1.802   9.398  11.719
 5069W        W 5550   0.126   8.051  14.037
 5070W        W 5551   0.888   7.331  13.839
 5071W        W 5552   2.582   7.719  12.726
 5072W        W 5553   2.231   8.590  11.296
 5073W        W 5554   2.801   8.024  14.387
 5074W        W 5555   0.167   7.816  13.512
 5075W        W 5556   0.266  10.435  14.533
 5076W        W 5557   1.788   9.825  11.265
 5077W        W 5558   0.220   8.608  12.958
 5078W        W 5559   3.572   8.358  12.694
 5079W        W 5560   3.336   9.401  13.553
 5080W        W 5561   1.644   8.734  12.580
 5081W        W 5562   2.190  10.073  12.949
 5082W        W 5563   0.690   9.507  13.181
 5083W        W 5564   0.049   9.035  12.752
 5084W        W 5565   1.085   9.007  13.944
 5085W        W 5566   3.356   8.790  14.198
 5086W        W 5567   0.972  10.234  12.643
 5087W        W 5568   2.093   9.923  13.777
 5088W        W 5569   1.313   8.563  13.002
 5089W        W 5570   1.605   9.347  12.645
 5090W        W 5571   2.602  10.120  14.493
 5091W        W 5572   1.681   9.440  14.503
 5092W        W 5573   1.662   9.156  13.981
 5093W        W 5574   0.071   8.547  14.503
 5094W        W 5575   2.903  10.082  14.102
 5095W        W 5576   0.484   7.664  12.100
 5096W        W 5577   1.011   9.922  13.099
 5097W        W 5578   3.474   9.705  12.389
 5098W        W 5579   2.887   8.105  12.956
 5099W        W 5580   3.172   8.058  11.051
 5100W        W 5581   3.637   8.859  13.357
 5101W        W 5582   1.604  10.566  13.110
 5102W        W 5583   3.378  10.032  11.548
 5103W        W 5584   0.507  10.818  11.302
 5104W        W 5585   0.900  10.864  11.978
 5105W        W 5586   0.697   7.618  13.404
 5106W        W 5587   3.320   8.636  13.679
 5107W        W 5588   2.725   9.058  12.138
 5108W        W 5589   2.691   8.746  11.165
 5109W        W 5590   1.899   9.890  13.305
 5110W        W 5591   1.705   8.220  12.504
 5111W        W 5592   2.305  10.307  13.498
 5112W        W 5593   3.176   9.098  11.920
 5113W        W 5594   2.078   7.756  11.936
 5114W        W 5595   0.735  10.450  11.619
 5115W        W 5596   0.106   7.949  12.218
 5116W        W 5597   2.892   8.556  12.692
 5117W        W 5598   1.691  10.523  11.477
 5118W        W 5599   3.083   8.549  10.941
 5119W        W 5600   0.106  10.307  13.105
 5120W        W 5601   0.897   9.879  13.585
 5121W        W 5602   1.270   9.239  12.204
 5122W        W 5603   1.292   7.644  13.297
 5123W        W 5604   3.521   7.406  12.594
 5124W        W 5605   0.740   9.278  11.062
 5125W        W 5606   0.395   8.311  11.241
 5126W        W 5607   0.457  10.267  12.035
 5127W        W 5608   1.588   9.750  12.283
 5128W        W 5609   2.920  10.609  13.997
 5129W        W 5610   1.846   8.251  11.681
 5130W        W 5611   3.229  10.649  12.453
 5131W        W 5612   2.906   8.502  14.051
 5132W        W 5613   3.619  10.158  12.185
 5133W        W 5614   2.246   9.450  13.669
 5134W        W 5615   0.012   9.001  11.875
 5135W        W 5616   1.123   9.416  13.448
 5136W        W 5617   2.327   8.680  11.826
 5137W        W 5618   0.547   8.590  13.404
 5138W        W 5619   0.532   8.466  14.326
 5139W        W 5620   0.422   7.383  12.485
 5140W        W 5621   2.190   7.730  13.046
 5141W        W 5622   1.838   7.915  14.209
 5142W        W 5623   2.193   8.064  11.387
 5143W        W 5624   3.376  10.457  14.141
 5144W        W 5625   2.343   7.538  14.180
 5145W        W 5626   3.362   9.839  14.302
 5146W        W 5627   2.792   8.006  13.898
 5147W        W 5628   2.592   7.944  12.168
 5148W        W 5629   2.985   9.078  14.572
 5149W        W 5630   0.725  10.654  12.558
 5150W        W 5631   1.383   8.371  11.544
 5151W        W 5632   0.952   7.655  14.208
 5152W        W 5633   3.004   8.139  11.889
 5153W        W 5634   3.371   8.621  11.834
 5154W        W 5635   1.114  10.838  14.305
 5155W        W 5636   3.361   7.908  12.575
 5156W        W 5637   3.511  10.157  11.020
 5157W        W 5638   0.418   9.360  12.722
 5158W        W 5639   2.335   7.947  10.952
 5159W        W 5640   3.469  10.279  12.672
 5160W        W 5641   3.508   7.473  13.422
 5161W        W 5642   1.953   8.685  13.976
 5162W        W 5643   2.046  10.024  11.679
 5163W        W 5644   2.446   9.318  14.419
 5164W        W 5645   2.120   7.295  12.728
 5165W        W 5646   0.732   8.198  12.791
 5166W        W 5647   0.286   9.398  13.565
 5167W        W 5648   2.145  10.591  12.271
 5168W        W 5649   3.339   8.188  13.143
 5169W        W 5650   1.976  10.535  13.910
 5170W        W 5651   3.319   9.594  11.115
 5171W        W 5652   3.606   7.588  13.917
 5172W        W 5653   1.755   9.423  13.511
 5173W        W 5654   1.972   8.309  12.956
 5174W        W 5655   2.824   8.607  11.794
 5175W        W 5656   3.111   8.340  11.436
 5176W        W 5657   2.920  10.380  11.825
 5177W        W 5658   2.754   9.983  12.621
 5178W        W 5659   2.650   9.062  11.599
 5179W        W 5660   2.083   9.272  12.585
 5180W        W 5661   2.964   9.060  12.652
 5181W        W 5662   0.339   8.075  13.076
 5182W        W 5663   3.117   9.127  13.903
 5183W        W 5664   3.468  10.745  13.049
 5184W        W 5665   1.398  10.189  12.451
 5185W        W 5666   2.405  10.722  13.775
 5186W        W 5667   2.399   8.052  13.539
 5187W        W 5668   1.606  10.760  13.600
 5188W        W 5669   3.303   7.714  12.066
 5189W        W 5670   3.094   9.033  13.367
 5190W        W 5671   0.077   8.354  13.405
 5191W        W 5672   2.937   8.149  12.423
 5192W        W 5673   3.348   8.300  14.200
 5193W        W 5674   2.233   9.999  12.418
 5194W        W 5675   1.489  10.590  12.031
 5195W        W 5676   0.604   7.770  11.289
 5196W        W 5677   1.708   7.424  13.099
 5197W        W 5678   0.736  10.544  10.947
 5198W        W 5679   1.110   9.010  11.698
 5199W        W 5680   1.764   9.639  14.011
 5200W        W 5681   1.594   7.997  12.001
 5201W        W 5682   2.950   7.594  12.429
 5202W        W 5683   2.670  10.876  12.757
 5203W        W 5684   2.082  10.524  13.097
 5204W        W 5685   1.478   9.561  13.058
 5205W        W 5686   3.248  10.284  13.184
 5206W        W 5687   0.942   7.787  11.953
 5207W        W 5688   1.464  10.084  12.913
 5208W        W 5689   0.947   8.015  10.978
 5209W        W 5690   1.748   8.624  13.372
 5210W        W 5691   2.596   7.490  13.242
 5211W        W 5692   0.016   9.333  13.127
 5212W        W 5693   1.720   9.151  11.285
 5213W        W 5694   0.988   7.466  11.055
 5214W        W 5695   1.726   8.547  12.106
 5215W        W 5696   2.696   7.523  13.805
 5216W        W 5697   1.284   9.535  13.914
 5217W        W 5698   2.088   9.317  14.131
 5218W        W 5699   2.705   9.347  14.024
 5219W        W 5700   1.989   7.487  14.529
 5220W        W 5701   1.211   8.103  12.922
 5221W        W 5702   0.637   8.059  12.320
 5222W        W 5703   0.423  10.771  11.996
 5223W        W 5704   1.755  10.101  14.121
 5224W        W 5705   0.790   9.586  11.480
 5225W        W 5706   2.470   8.971  12.701
 5226W        W 5707   2.750   8.770  13.100
 5227W        W 5708   1.955   9.444  13.034
 5228W        W 5709   2.425   9.818  11.166
 5229W        W 5710   2.097   7.839  12.494
 5230W        W 5711   3.576   8.117  11.762
 5231W        W 5712   0.070  10.706  13.793
 5232W        W 5713   0.487   9.932  13.325
 5233W        W 5714   0.054  10.778  11.557
 5234W        W 5715   1.953   8.048  13.363
 5235W        W 5716   1.316  10.071  11.212
 5236W        W 5717   3.221  10.453  11.398
 5237W        W 5718   2.196   9.106  11.412
 5238W        W 5719   1.039   8.297  11.929
 5239W        W 5720   1.871   8.207  10.981
 5240W        W 5721   2.455   9.772  14.159
 5241W        W 5722   2.808   7.678  11.776
 5242W        W 5723   0.138   7.526  11.224
 5243W        W 5724   1.424   9.845  13.514
 5244W        W 5725   1.223   9.761  12.606
 5245W        W 5726   0.965   9.713  11.004
 5246W        W 5727   0.206   9.954  11.772
 5247W        W 5728   0.710   9.024  14.214
 5248W        W 5729   1.414   7.584  14.400
 5249W        W 5730   2.123   7.726  13.756
 5250W        W 5731   1.318   7.494  12.037
 5251W        W 5732   2.377   7.571  11.542
 5252W        W 5733   0.322   7.503  13.119
 5253W        W 5734   0.370   8.466  12.489
 5254W        W 5735   3.059   7.574  12.895
 5255W        W 5736   0.481   8.072  11.709
 5256W        W 5737   3.052   7.760  13.325
 5257W        W 5738   3.448   8.963  11.010
 5258W        W 5739   0.740   7.721  12.829
 5259W        W 5740   1.854   8.293  13.769
 5260W        W 5741   0.002   7.983  11.247
 5261W        W 5742   0.788   9.372  13.808
 5262W        W 5743   2.146   8.770  12.987
 5263W        W 5744   2.013  10.849  11.283
 5264W        W 5745   0.159   9.356  10.980
 5265W        W 5746   0.894   9.767  14.106
 5266W        W 5747   0.415   8.934  13.737
 5267W        W 5748   1.406   9.039  13.531
 5268W        W 5749   3.174   7.398  13.793
 5269W        W 5750   3.572   9.008  13.784
 5270W        W 5751   3.560   9.208  11.470
 5271W        W 5752   2.423   9.540  11.569
 5272W        W 5753   2.897  10.840  11.264
 5273W        W 5754   2.074   8.830  14.406
 5274W        W 5755   0.404   9.797  14.446
 5275W        W 5756   3.610   7.719  14.398
 5276W        W 5757   3.328   8.647  13.019
 5277W        W 5758   1.636  10.777  14.496
 5278W        W 5759   1.491   7.406  11.223
 5279W        W 5760   3.030  10.005  11.166
 5280W        W 5761   0.799   8.098  14.052
 5281W        W 5762   1.233  10.092  13.914
 5282W        W 5763   3.359   8.083  13.712
 5283W        W 5764   2.570  10.742  11.680
 5284W        W 5765   2.809   9.361  13.047
 5285W        W 5766   1.059   7.777  13.714
 5286W        W 5767   1.528   8.846  14.471
 5287W        W 5768   1.031  10.025  11.665
 5288W        W 5769   2.786   9.523  11.929
 5289W        W 5770   0.554   8.149  13.653
 5290W        W 5771   1.883  10.211  12.117
 5291W        W 5772   3.633   8.771  12.298
 5292W        W 5773   1.855   7.404  14.017
 5293W        W 5774   2.635  10.109  13.096
 5294W        W 5775   2.938  10.453  12.804
 5295W        W 5776   2.157  10.255  11.232
 5296W        W 5777   0.167  10.147  14.074
 5297W        W 5778   0.910   8.139  13.312
 5298W        W 5779   0.880   7.487  12.422
 5299W        W 5780   2.501   8.329  13.114
 5300W        W 5781   1.299   9.500  11.314
 5301W        W 5782   3.297   9.442  12.813
 5302W        W 5783   0.624  10.200  14.236
 5303W        W 5784   3.011  10.882  12.033
 5304W        W 5785   1.110   7.902  12.478
 5305W        W 5786   0.879   9.395  12.568
 5306W        W 5787   1.192  10.806  13.318
 5307W        W 5788   3.259  10.902  14.350
 5308W        W 5789   2.418   9.090  13.283
 5309W        W 5790   0.267   8.888  11.198
 5310W        W 5791   3.401  10.546  11.895
 5311W        W 5792   3.238   7.870  11.514
 5312W        W 5793   1.377   7.389  13.917
 5313W        W 5794   3.083  10.191  12.375
 5314W        W 5795   3.112   8.747  12.280
 5315W        W 5796   1.229   8.420  12.496
 5316W        W 5797   1.474   8.682  13.820
 5317W        W 5798   2.585   9.835  13.683
 5318W        W 5799   1.235   8.289  13.795
 5319W        W 5800   1.214  10.755  12.411
 5320W        W 5801   0.531  10.714  14.045
 5321W        W 5802   0.643  10.075  11.175
 5322W        W 5803   3.160   9.833  11.985
 5323W        W 5804   0.764   8.625  13.871
 5324W        W 5805   3.537   8.555  11.352
 5325W        W 5806   1.282   9.612  11.823
 5326W        W 5807   2.381   8.994  13.904
 5327W        W 5808   2.272   8.622  13.448
 5328W        W 5809   0.832   8.994  13.477
 5329W        W 5810   3.042  10.882  13.306
 5330W        W 5811   2.833   7.516  14.300
 5331W        W 5812   0.497   7.666  13.887
 5332W        W 5813   0.836   8.689  12.940
 5333W        W 5814   1.205   8.503  11.062
 5334W        W 5815   0.008  10.262  13.607
 5335W        W 5816   1.593   8.971  13.050
 5336W        W 5817   1.416   7.996  11.155
 5337W        W 5818   0.551   8.812  11.936
 5338W        W 5819   0.322  10.664  13.373
 5339W        W 5820   3.212   7.806  14.167
 5340W        W 5821   2.648  10.015  12.130
 5341W        W 5822   0.246   8.939  14.307
 5342W        W 5823   3.212   7.403  11.603
 5343W        W 5824   2.732   9.878  11.614
 5344W        W 5825   1.634   8.936  11.699
 5345W        W 5826   2.821   7.740  11.222
 5346W        W 5827   2.886   8.347  13.408
 5347W        W 5828   0.595   8.940  12.615
 5348W        W 5829   0.889   9.879  12.264
 5349W        W 5830   2.652   8.499  12.229
 5350W        W 5831   1.675   7.878  12.925
 5351W        W 5832   3.637   9.789  13.436
 5352W        W 5833   3.555   7.776  12.997
 5353W        W 5834   0.094  10.606  12.373
 5354W        W 5835   0.603   9.793  11.909
 5355W        W 5836   0.518   7.410  14.462
 5356W        W 5837   1.637  10.263  14.564
 5357W        W 5838   3.392   9.231  12.354
 5358W        W 5839   2.746   9.408  11.234
 5359W        W 5840   2.041  10.929  13.446
 5360W        W 5841   2.898   9.651  14.483
 5361W        W 5842   1.713   7.361  11.763
 5362W        W 5843   2.426   8.230  12.622
 5363W        W 5844   0.112   9.817  12.954
 5364W        W 5845   1.365   7.779  11.595
 5365W        W 5846   1.169   9.263  14.444
 5366W        W 5847   2.163   8.244  12.158
 5367W        W 5848   2.368   9.654  13.280
 5368W        W 5849   0.522  10.259  13.715
 5369W        W 5850   1.113  10.242  14.438
 5370W        W 5851   0.964   8.039  11.452
 5371W        W 5852   2.481   8.181  11.777
 5372W        W 5853   2.439  10.289  14.014
 5373W        W 5854   1.124   8.881  12.613
 5374W        W 5855   0.779  10.579  13.478
 5375W        W 5856   3.524  10.696  11.079
 5376W        W 5857   0.387   9.368  14.075
 5377W        W 5858   2.382   9.630  12.763
 5378W        W 5859   0.818   9.279  12.005
 5379W        W 5860   1.189  10.286  13.400
 5380W        W 5861   1.567   7.705  12.441
 5381W        W 5862   0.178   9.689  11.371
 5382W        W 5863   1.697   8.640  11.241
 5383W        W 5864   0.343   9.189  12.260
 5384W        W 5865   1.633   7.831  13.724
 5385W        W 5866   3.305   7.540  11.151
 5386W        W 5867   3.398   9.286  14.250
 5387W        W 5868   2.052  10.543  14.402
 5388W        W 5869   3.610   9.637  13.924
 5389W        W 5870   3.018  10.435  14.535
 5390W        W 5871   0.757  10.891  13.013
 5391W        W 5872   3.616   9.513  11.887
 5392W        W 5873   2.146   8.780  12.400
 5393W        W 5874   1.913   7.392  12.290
 5394W        W 5875   0.972  10.376  12.127
 5395W        W 5876   1.471   8.117  13.352
 5396W        W 5877   1.171   7.486  12.821
 5397W        W 5878   0.234  10.308  11.369
 5398W        W 5879   2.050   9.672  12.087
 5399W        W 5880   0.925  10.467  13.966
 5400W        W 5881   0.402   9.290  11.662
 5401W        W 5882   0.287   7.833  12.661
 5402W        W 5883   1.835   9.798  12.718
 5403W        W 5884   0.087   7.652  11.738
 5404W        W 5885   2.751   8.858  13.665
 5405W        W 5886   3.145   9.916  12.885
 5406W        W 5887   1.806  10.400  12.716
 5407W        W 5888   1.218  10.504  11.627
 5408W        W 5889   2.500   7.407  11.057
 5409W        W 5890   0.300  10.667  12.798
 5410W        W 5891   2.497   8.425  14.433
 5411W        W 5892   0.480   7.955  14.432
 5412W        W 5893   0.211   8.555  11.765
 5413W        W 5894   0.902   8.544  11.490
 5414W        W 5895   2.665   8.871  14.307
 5415W        W 5896   1.008   9.152  13.016
 5416W        W 5897   2.482   7.438  12.136
 5417W        W 5898   1.613  10.869  12.639
 5418W        W 5899   2.827  10.331  13.576
 5419W        W 5900   2.411  10.480  12.687
 5420W        W 5901   2.430   9.460  12.281
 5421W        W 5902   1.892   7.685  11.352
 5422W        W 5903   3.573   7.313  12.074
 5423W        W 5904   1.261   8.948  11.237
 5424W        W 5905   3.427   8.285  12.227
 5425W        W 5906   2.119   9.455  11.104
 5426W        W 5907   3.055   9.655  13.852
 5427W        W 5908   2.709  10.356  11.319
 5428W        W 5909   1.324   8.031  14.225
 5429W        W 5910   1.144   8.615  13.466
 5430W        W 5911   3.236  10.110  13.743
 5431W        W 5912   2.336   8.060  14.120
 5432W        W 5913   0.180   8.531  13.897
 5433W        W 5914   1.940   9.008  13.623
 5434W        W 5915   0.297   9.766  12.280
 5435W        W 5916   0.444   9.063  13.170
 5436W        W 5917   2.761   9.349  13.520
 5437W        W 5918   2.533  10.729  14.331
 5438W        W 5919   2.429   8.468  13.884
 5439W        W 5920   2.706  10.522  12.289
 5440W        W 5921   1.708  10.242  13.612
 5441W        W 5922   1.193  10.597  12.881
 5442W        W 5923   2.998   9.768  13.300
 5443W        W 5924   2.048   9.840  14.437
 5444W        W 5925   0.653   9.793  12.776
 5445W        W 5926   2.999   9.552  12.421
 5446W        W 5927   2.640  10.618  13.172
 5447W        W 5928   0.618  10.347  13.042
 5448W        W 5929   1.639   8.399  14.252
 5449W        W 5930   2.090  10.565  11.763
 5450W        W 5931   1.398   9.820  14.401
 5451W        W 5932   1.524  10.058  11.778
 5452W        W 5933   0.745   8.798  11.037
 5453W        W 5934   0.084  10.884  17.936
 5454W        W 5935   0.460   9.777  17.459
 5455W        W 5936   3.165   9.507  15.229
 5456W        W 5937   3.295  10.592  17.256
 5457W        W 5938   1.213  10.583  14.782
 5458W        W 5939   1.296   8.735  15.765
 5459W        W 5940   0.811   8.583  15.929
 5460W        W 5941   1.802   9.398  15.363
 5461W        W 5942   1.477  10.490  17.718
 5462W        W 5943   0.126   8.051  17.681
 5463W        W 5944   0.888   7.331  17.483
 5464W        W 5945   2.582   7.719  16.370
 5465W        W 5946   2.231   8.590  14.940
 5466W        W 5947   0.167   7.816  17.156
 5467W        W 5948   1.788   9.825  14.909
 5468W        W 5949   0.220   8.608  16.602
 5469W        W 5950   3.572   8.358  16.338
 5470W        W 5951   3.336   9.401  17.197
 5471W        W 5952   1.644   8.734  16.224
 5472W        W 5953   2.190  10.073  16.593
 5473W        W 5954   0.690   9.507  16.825
 5474W        W 5955   0.049   9.035  16.396
 5475W        W 5956   1.085   9.007  17.588
 5476W        W 5957   0.972  10.234  16.287
 5477W        W 5958   2.093   9.923  17.421
 5478W        W 5959   1.605   9.347  16.289
 5479W        W 5960   1.662   9.156  17.625
 5480W        W 5961   2.903  10.082  17.746
 5481W        W 5962   0.484   7.664  15.744
 5482W        W 5963   1.011   9.922  16.743
 5483W        W 5964   3.474   9.705  16.033
 5484W        W 5965   2.887   8.105  16.600
 5485W        W 5966   3.172   8.058  14.695
 5486W        W 5967   3.637   8.859  17.001
 5487W        W 5968   1.604  10.566  16.754
 5488W        W 5969   3.378  10.032  15.192
 5489W        W 5970   0.507  10.818  14.946
 5490W        W 5971   0.900  10.864  15.622
 5491W        W 5972   0.697   7.618  17.048
 5492W        W 5973   3.320   8.636  17.323
 5493W        W 5974   2.725   9.058  15.782
 5494W        W 5975   2.691   8.746  14.809
 5495W        W 5976   1.899   9.890  16.949
 5496W        W 5977   1.705   8.220  16.148
 5497W        W 5978   2.305  10.307  17.142
 5498W        W 5979   3.176   9.098  15.564
 5499W        W 5980   2.078   7.756  15.580
 5500W        W 5981   0.735  10.450  15.263
 5501W        W 5982   0.106   7.949  15.862
 5502W        W 5983   2.892   8.556  16.336
 5503W        W 5984   0.350  10.173  16.251
 5504W        W 5985   1.691  10.523  15.121
 5505W        W 5986   3.083   8.549  14.585
 5506W        W 5987   0.106  10.307  16.749
 5507W        W 5988   0.897   9.879  17.229
 5508W        W 5989   1.270   9.239  15.848
 5509W        W 5990   1.292   7.644  16.941
 5510W        W 5991   3.521   7.406  16.238
 5511W        W 5992   0.740   9.278  14.706
 5512W        W 5993   0.395   8.311  14.885
 5513W        W 5994   0.457  10.267  15.679
 5514W        W 5995   2.920  10.609  17.641
 5515W        W 5996   1.846   8.251  15.325
 5516W        W 5997   3.229  10.649  16.097
 5517W        W 5998   3.619  10.158  15.829
 5518W        W 5999   2.246   9.450  17.313
 5519W        W 6000   1.123   9.416  17.092
 5520W        W 6001   2.204   9.170  15.574
 5521W        W 6002   0.547   8.590  17.048
 5522W        W 6003   0.422   7.383  16.129
 5523W        W 6004   2.190   7.730  16.690
 5524W        W 6005   2.193   8.064  15.031
 5525W        W 6006   3.376  10.457  17.785
 5526W        W 6007   2.343   7.538  17.824
 5527W        W 6008   2.792   8.006  17.542
 5528W        W 6009   2.592   7.944  15.812
 5529W        W 6010   0.725  10.654  16.202
 5530W        W 6011   1.383   8.371  15.188
 5531W        W 6012   3.004   8.139  15.533
 5532W        W 6013   3.371   8.621  15.478
 5533W        W 6014   1.040   7.374  15.184
 5534W        W 6015   3.361   7.908  16.219
 5535W        W 6016   3.511  10.157  14.664
 5536W        W 6017   0.418   9.360  16.366
 5537W        W 6018   2.335   7.947  14.596
 5538W        W 6019   3.469  10.279  16.316
 5539W        W 6020   3.508   7.473  17.066
 5540W        W 6021   1.953   8.685  17.620
 5541W        W 6022   2.046  10.024  15.323
 5542W        W 6023   2.120   7.295  16.372
 5543W        W 6024   0.732   8.198  16.435
 5544W        W 6025   0.286   9.398  17.209
 5545W        W 6026   2.145  10.591  15.915
 5546W        W 6027   3.339   8.188  16.787
 5547W        W 6028   1.976  10.535  17.554
 5548W        W 6029   3.319   9.594  14.759
 5549W        W 6030   1.754   9.077  15.820
 5550W        W 6031   3.606   7.588  17.561
 5551W        W 6032   1.755   9.423  17.155
 5552W        W 6033   1.972   8.309  16.600
 5553W        W 6034   2.824   8.607  15.438
 5554W        W 6035   3.111   8.340  15.080
 5555W        W 6036   2.920  10.380  15.469
 5556W        W 6037   2.754   9.983  16.265
 5557W        W 6038   2.650   9.062  15.243
 5558W        W 6039   2.083   9.272  16.229
 5559W        W 6040   2.964   9.060  16.296
 5560W        W 6041   0.339   8.075  16.720
 5561W        W 6042   3.117   9.127  17.547
 5562W        W 6043   3.468  10.745  16.693
 5563W        W 6044   1.398  10.189  16.095
 5564W        W 6045   2.405  10.722  17.419
 5565W        W 6046   2.399   8.052  17.183
 5566W        W 6047   1.606  10.760  17.244
 5567W        W 6048   3.303   7.714  15.710
 5568W        W 6049   3.094   9.033  17.011
 5569W        W 6050   0.077   8.354  17.049
 5570W        W 6051   2.937   8.149  16.067
 5571W        W 6052   2.233   9.999  16.062
 5572W        W 6053   1.489  10.590  15.675
 5573W        W 6054   0.604   7.770  14.933
 5574W        W 6055   1.708   7.424  16.743
 5575W        W 6056   0.736  10.544  14.591
 5576W        W 6057   1.110   9.010  15.342
 5577W        W 6058   1.764   9.639  17.655
 5578W        W 6059   1.594   7.997  15.645
 5579W        W 6060   2.950   7.594  16.073
 5580W        W 6061   2.670  10.876  16.401
 5581W        W 6062   2.082  10.524  16.741
 5582W        W 6063   1.478   9.561  16.702
 5583W        W 6064   3.248  10.284  16.828
 5584W        W 6065   0.942   7.787  15.597
 5585W        W 6066   1.464  10.084  16.557
 5586W        W 6067   0.947   8.015  14.622
 5587W        W 6068   1.748   8.624  17.016
 5588W        W 6069   2.596   7.490  16.886
 5589W        W 6070   0.016   9.333  16.771
 5590W        W 6071   1.720   9.151  14.929
 5591W        W 6072   0.988   7.466  14.699
 5592W        W 6073   1.726   8.547  15.750
 5593W        W 6074   2.696   7.523  17.449
 5594W        W 6075   1.284   9.535  17.558
 5595W        W 6076   2.705   9.347  17.668
 5596W        W 6077   1.211   8.103  16.566
 5597W        W 6078   0.637   8.059  15.964
 5598W        W 6079   0.423  10.771  15.640
 5599W        W 6080   1.755  10.101  17.765
 5600W        W 6081   0.790   9.586  15.124
 5601W        W 6082   2.470   8.971  16.345
 5602W        W 6083   2.750   8.770  16.744
 5603W        W 6084   1.955   9.444  16.678
 5604W        W 6085   2.425   9.818  14.810
 5605W        W 6086   2.097   7.839  16.138
 5606W        W 6087   3.576   8.117  15.406
 5607W        W 6088   0.070  10.706  17.437
 5608W        W 6089   0.487   9.932  16.969
 5609W        W 6090   0.054  10.778  15.201
 5610W        W 6091   1.953   8.048  17.007
 5611W        W 6092   1.316  10.071  14.856
 5612W        W 6093   3.221  10.453  15.042
 5613W        W 6094   2.196   9.106  15.056
 5614W        W 6095   1.039   8.297  15.573
 5615W        W 6096   1.871   8.207  14.625
 5616W        W 6097   2.808   7.678  15.420
 5617W        W 6098   0.138   7.526  14.868
 5618W        W 6099   1.424   9.845  17.158
 5619W        W 6100   1.223   9.761  16.250
 5620W        W 6101   0.965   9.713  14.648
 5621W        W 6102   2.123   7.726  17.400
 5622W        W 6103   1.318   7.494  15.681
 5623W        W 6104   2.377   7.571  15.186
 5624W        W 6105   0.322   7.503  16.763
 5625W        W 6106   0.370   8.466  16.133
 5626W        W 6107   3.059   7.574  16.539
 5627W        W 6108   0.481   8.072  15.353
 5628W        W 6109   3.052   7.760  16.969
 5629W        W 6110   3.448   8.963  14.654
 5630W        W 6111   0.740   7.721  16.473
 5631W        W 6112   1.854   8.293  17.413
 5632W        W 6113   0.002   7.983  14.891
 5633W        W 6114   0.788   9.372  17.452
 5634W        W 6115   2.146   8.770  16.631
 5635W        W 6116   2.013  10.849  14.927
 5636W        W 6117   0.159   9.356  14.624
 5637W        W 6118   0.415   8.934  17.381
 5638W        W 6119   1.406   9.039  17.175
 5639W        W 6120   3.174   7.398  17.437
 5640W        W 6121   3.572   9.008  17.428
 5641W        W 6122   3.560   9.208  15.114
 5642W        W 6123   2.423   9.540  15.213
 5643W        W 6124   2.897  10.840  14.908
 5644W        W 6125   3.328   8.647  16.663
 5645W        W 6126   1.491   7.406  14.867
 5646W        W 6127   3.030  10.005  14.810
 5647W        W 6128   1.233  10.092  17.558
 5648W        W 6129   3.359   8.083  17.356
 5649W        W 6130   2.570  10.742  15.324
 5650W        W 6131   2.809   9.361  16.691
 5651W        W 6132   1.059   7.777  17.358
 5652W        W 6133   1.031  10.025  15.309
 5653W        W 6134   2.786   9.523  15.573
 5654W        W 6135   0.554   8.149  17.297
 5655W        W 6136   1.883  10.211  15.761
 5656W        W 6137   3.633   8.771  15.942
 5657W        W 6138   1.855   7.404  17.661
 5658W        W 6139   2.635  10.109  16.740
 5659W        W 6140   2.938  10.453  16.448
 5660W        W 6141   2.157  10.255  14.876
 5661W        W 6142   0.167  10.147  17.718
 5662W        W 6143   0.910   8.139  16.956
 5663W        W 6144   0.880   7.487  16.066
 5664W        W 6145   2.501   8.329  16.758
 5665W        W 6146   1.299   9.500  14.958
 5666W        W 6147   3.297   9.442  16.457
 5667W        W 6148   3.011  10.882  15.677
 5668W        W 6149   1.110   7.902  16.122
 5669W        W 6150   1.192  10.806  16.962
 5670W        W 6151   2.418   9.090  16.927
 5671W        W 6152   0.267   8.888  14.842
 5672W        W 6153   3.401  10.546  15.539
 5673W        W 6154   3.238   7.870  15.158
 5674W        W 6155   1.377   7.389  17.561
 5675W        W 6156   3.083  10.191  16.019
 5676W        W 6157   3.112   8.747  15.924
 5677W        W 6158   1.229   8.420  16.140
 5678W        W 6159   1.474   8.682  17.464
 5679W        W 6160   2.585   9.835  17.327
 5680W        W 6161   1.235   8.289  17.439
 5681W        W 6162   1.214  10.755  16.055
 5682W        W 6163   0.643  10.075  14.819
 5683W        W 6164   3.160   9.833  15.629
 5684W        W 6165   0.764   8.625  17.515
 5685W        W 6166   3.537   8.555  14.996
 5686W        W 6167   1.282   9.612  15.467
 5687W        W 6168   2.381   8.994  17.548
 5688W        W 6169   2.272   8.622  17.092
 5689W        W 6170   0.832   8.994  17.121
 5690W        W 6171   3.042  10.882  16.950
 5691W        W 6172   0.497   7.666  17.531
 5692W        W 6173   0.836   8.689  16.584
 5693W        W 6174   1.205   8.503  14.706
 5694W        W 6175   0.008  10.262  17.251
 5695W        W 6176   1.593   8.971  16.694
 5696W        W 6177   1.416   7.996  14.799
 5697W        W 6178   0.551   8.812  15.580
 5698W        W 6179   0.322  10.664  17.017
 5699W        W 6180   3.117   8.890  15.125
 5700W        W 6181   2.648  10.015  15.774
 5701W        W 6182   3.212   7.403  15.247
 5702W        W 6183   2.732   9.878  15.258
 5703W        W 6184   1.634   8.936  15.343
 5704W        W 6185   2.821   7.740  14.866
 5705W        W 6186   2.886   8.347  17.052
 5706W        W 6187   0.595   8.940  16.259
 5707W        W 6188   0.889   9.879  15.908
 5708W        W 6189   2.652   8.499  15.873
 5709W        W 6190   1.675   7.878  16.569
 5710W        W 6191   3.555   7.776  16.641
 5711W        W 6192   0.094  10.606  16.017
 5712W        W 6193   0.603   9.793  15.553
 5713W        W 6194   3.392   9.231  15.998
 5714W        W 6195   2.746   9.408  14.878
 5715W        W 6196   2.041  10.929  17.090
 5716W        W 6197   1.713   7.361  15.407
 5717W        W 6198   2.426   8.230  16.266
 5718W        W 6199   0.112   9.817  16.598
 5719W        W 6200   1.365   7.779  15.239
 5720W        W 6201   2.163   8.244  15.802
 5721W        W 6202   2.368   9.654  16.924
 5722W        W 6203   0.522  10.259  17.359
 5723W        W 6204   0.964   8.039  15.096
 5724W        W 6205   2.481   8.181  15.421
 5725W        W 6206   2.439  10.289  17.658
 5726W        W 6207   1.124   8.881  16.257
 5727W        W 6208   0.779  10.579  17.122
 5728W        W 6209   3.524  10.696  14.723
 5729W        W 6210   2.382   9.630  16.407
 5730W        W 6211   0.818   9.279  15.649
 5731W        W 6212   1.189  10.286  17.044
 5732W        W 6213   1.567   7.705  16.085
 5733W        W 6214   0.178   9.689  15.015
 5734W        W 6215   1.697   8.640  14.885
 5735W        W 6216   0.343   9.189  15.904
 5736W        W 6217   1.633   7.831  17.368
 5737W        W 6218   3.305   7.540  14.795
 5738W        W 6219   3.610   9.637  17.568
 5739W        W 6220   0.757  10.891  16.657
 5740W        W 6221   3.616   9.513  15.531
 5741W        W 6222   2.146   8.780  16.044
 5742W        W 6223   1.913   7.392  15.934
 5743W        W 6224   0.972  10.376  15.771
 5744W        W 6225   1.471   8.117  16.996
 5745W        W 6226   1.171   7.486  16.465
 5746W        W 6227   0.234  10.308  15.013
 5747W        W 6228   2.050   9.672  15.731
 5748W        W 6229   0.925  10.467  17.610
 5749W        W 6230   0.402   9.290  15.306
 5750W        W 6231   0.287   7.833  16.305
 5751W        W 6232   1.835   9.798  16.362
 5752W        W 6233   0.087   7.652  15.382
 5753W        W 6234   2.751   8.858  17.309
 5754W        W 6235   2.628   8.244  14.881
 5755W        W 6236   3.145   9.916  16.529
 5756W        W 6237   1.806  10.400  16.360
 5757W        W 6238   1.218  10.504  15.271
 5758W        W 6239   2.500   7.407  14.701
 5759W        W 6240   0.300  10.667  16.442
 5760W        W 6241   0.211   8.555  15.409
 5761W        W 6242   0.902   8.544  15.134
 5762W        W 6243   1.008   9.152  16.660
 5763W        W 6244   2.482   7.438  15.780
 5764W        W 6245   1.613  10.869  16.283
 5765W        W 6246   2.827  10.331  17.220
 5766W        W 6247   2.411  10.480  16.331
 5767W        W 6248   2.430   9.460  15.925
 5768W        W 6249   1.892   7.685  14.996
 5769W        W 6250   3.573   7.313  15.718
 5770W        W 6251   1.261   8.948  14.881
 5771W        W 6252   3.427   8.285  15.871
 5772W        W 6253   2.119   9.455  14.748
 5773W        W 6254   3.055   9.655  17.496
 5774W        W 6255   2.709  10.356  14.963
 5775W        W 6256   1.144   8.615  17.110
 5776W        W 6257   3.236  10.110  17.387
 5777W        W 6258   0.180   8.531  17.541
 5778W        W 6259   1.940   9.008  17.267
 5779W        W 6260   0.297   9.766  15.924
 5780W        W 6261   0.444   9.063  16.814
 5781W        W 6262   2.761   9.349  17.164
 5782W        W 6263   2.533  10.729  17.975
 5783W        W 6264   2.429   8.468  17.528
 5784W        W 6265   2.706  10.522  15.933
 5785W        W 6266   1.708  10.242  17.256
 5786W        W 6267   1.193  10.597  16.525
 5787W        W 6268   2.998   9.768  16.944
 5788W        W 6269   0.653   9.793  16.420
 5789W        W 6270   2.999   9.552  16.065
 5790W        W 6271   2.640  10.618  16.816
 5791W        W 6272   0.618  10.347  16.686
 5792W        W 6273   2.090  10.565  15.407
 5793W        W 6274   1.524  10.058  15.422
 5794W        W 6275   0.745   8.798  14.681
 5795W        W 6276   0.084  14.528   3.359
 5796W        W 6277   0.460  13.421   2.882
 5797W        W 6278   3.165  13.151   0.652
 5798W        W 6279   3.295  14.236   2.679
 5799W        W 6280   1.213  14.227   0.205
 5800W        W 6281   1.296  12.379   1.188
 5801W        W 6282   0.811  12.227   1.352
 5802W        W 6283   1.802  13.042   0.786
 5803W        W 6284   1.477  14.134   3.141
 5804W        W 6285   0.126  11.695   3.104
 5805W        W 6286   0.888  10.975   2.906
 5806W        W 6287   2.582  11.363   1.793
 5807W        W 6288   2.231  12.234   0.363
 5808W        W 6289   2.801  11.668   3.454
 5809W        W 6290   0.167  11.460   2.579
 5810W        W 6291   0.266  14.079   3.600
 5811W        W 6292   1.788  13.469   0.332
 5812W        W 6293   0.220  12.252   2.025
 5813W        W 6294   1.113  12.143   3.262
 5814W        W 6295   3.572  12.002   1.761
 5815W        W 6296   3.336  13.045   2.620
 5816W        W 6297   1.644  12.378   1.647
 5817W        W 6298   2.190  13.717   2.016
 5818W        W 6299   0.690  13.151   2.248
 5819W        W 6300   0.049  12.679   1.819
 5820W        W 6301   1.085  12.651   3.011
 5821W        W 6302   3.356  12.434   3.265
 5822W        W 6303   0.972  13.878   1.710
 5823W        W 6304   2.093  13.567   2.844
 5824W        W 6305   1.313  12.207   2.069
 5825W        W 6306   2.602  13.764   3.560
 5826W        W 6307   1.681  13.084   3.570
 5827W        W 6308   1.662  12.800   3.048
 5828W        W 6309   0.071  12.191   3.570
 5829W        W 6310   2.903  13.726   3.169
 5830W        W 6311   0.484  11.308   1.167
 5831W        W 6312   1.011  13.566   2.166
 5832W        W 6313   3.474  13.349   1.456
 5833W        W 6314   2.887  11.749   2.023
 5834W        W 6315   3.172  11.702   0.118
 5835W        W 6316   3.637  12.503   2.424
 5836W        W 6317   3.378  13.676   0.615
 5837W        W 6318   0.507  14.462   0.369
 5838W        W 6319   0.900  14.508   1.045
 5839W        W 6320   0.697  11.262   2.471
 5840W        W 6321   3.320  12.280   2.746
 5841W        W 6322   2.725  12.702   1.205
 5842W        W 6323   2.691  12.390   0.232
 5843W        W 6324   1.899  13.534   2.372
 5844W        W 6325   1.705  11.864   1.571
 5845W        W 6326   2.305  13.951   2.565
 5846W        W 6327   3.176  12.742   0.987
 5847W        W 6328   2.078  11.400   1.003
 5848W        W 6329   0.735  14.094   0.686
 5849W        W 6330   0.106  11.593   1.285
 5850W        W 6331   0.350  13.817   1.674
 5851W        W 6332   1.691  14.167   0.544
 5852W        W 6333   3.083  12.193   0.008
 5853W        W 6334   0.106  13.951   2.172
 5854W        W 6335   0.897  13.523   2.652
 5855W        W 6336   1.270  12.883   1.271
 5856W        W 6337   1.292  11.288   2.364
 5857W        W 6338   3.521  11.050   1.661
 5858W        W 6339   0.740  12.922   0.129
 5859W        W 6340   0.395  11.955   0.308
 5860W        W 6341   1.588  13.394   1.350
 5861W        W 6342   2.920  14.253   3.064
 5862W        W 6343   1.846  11.895   0.748
 5863W        W 6344   3.229  14.293   1.520
 5864W        W 6345   2.906  12.146   3.118
 5865W        W 6346   3.619  13.802   1.252
 5866W        W 6347   2.246  13.094   2.736
 5867W        W 6348   0.012  12.645   0.942
 5868W        W 6349   1.123  13.060   2.515
 5869W        W 6350   2.327  12.324   0.893
 5870W        W 6351   2.204  12.814   0.997
 5871W        W 6352   0.547  12.234   2.471
 5872W        W 6353   0.532  12.110   3.393
 5873W        W 6354   0.422  11.027   1.552
 5874W        W 6355   2.190  11.374   2.113
 5875W        W 6356   1.838  11.559   3.276
 5876W        W 6357   2.193  11.708   0.454
 5877W        W 6358   3.376  14.101   3.208
 5878W        W 6359   2.343  11.182   3.247
 5879W        W 6360   3.362  13.483   3.369
 5880W        W 6361   2.792  11.650   2.965
 5881W        W 6362   2.592  11.588   1.235
 5882W        W 6363   2.985  12.722   3.639
 5883W        W 6364   0.725  14.298   1.625
 5884W        W 6365   1.383  12.015   0.611
 5885W        W 6366   0.952  11.299   3.275
 5886W        W 6367   3.004  11.783   0.956
 5887W        W 6368   3.371  12.265   0.901
 5888W        W 6369   1.114  14.482   3.372
 5889W        W 6370   3.361  11.552   1.642
 5890W        W 6371   3.511  13.801   0.087
 5891W        W 6372   0.418  13.004   1.789
 5892W        W 6373   2.335  11.591   0.019
 5893W        W 6374   3.469  13.923   1.739
 5894W        W 6375   3.508  11.117   2.489
 5895W        W 6376   1.953  12.329   3.043
 5896W        W 6377   2.046  13.668   0.746
 5897W        W 6378   2.446  12.962   3.486
 5898W        W 6379   2.120  10.939   1.795
 5899W        W 6380   0.732  11.842   1.858
 5900W        W 6381   0.286  13.042   2.632
 5901W        W 6382   2.145  14.235   1.338
 5902W        W 6383   3.339  11.832   2.210
 5903W        W 6384   1.976  14.179   2.977
 5904W        W 6385   1.754  12.721   1.243
 5905W        W 6386   3.606  11.232   2.984
 5906W        W 6387   1.755  13.067   2.578
 5907W        W 6388   1.972  11.953   2.023
 5908W        W 6389   2.824  12.251   0.861
 5909W        W 6390   3.111  11.984   0.503
 5910W        W 6391   2.920  14.024   0.892
 5911W        W 6392   2.754  13.627   1.688
 5912W        W 6393   2.650  12.706   0.666
 5913W        W 6394   2.083  12.916   1.652
 5914W        W 6395   2.964  12.704   1.719
 5915W        W 6396   0.339  11.719   2.143
 5916W        W 6397   3.117  12.771   2.970
 5917W        W 6398   3.468  14.389   2.116
 5918W        W 6399   1.398  13.833   1.518
 5919W        W 6400   2.405  14.366   2.842
 5920W        W 6401   2.399  11.696   2.606
 5921W        W 6402   1.606  14.404   2.667
 5922W        W 6403   3.303  11.358   1.133
 5923W        W 6404   3.094  12.677   2.434
 5924W        W 6405   0.077  11.998   2.472
 5925W        W 6406   2.937  11.793   1.490
 5926W        W 6407   3.348  11.944   3.267
 5927W        W 6408   2.233  13.643   1.485
 5928W        W 6409   1.489  14.234   1.098
 5929W        W 6410   0.604  11.414   0.356
 5930W        W 6411   1.708  11.068   2.166
 5931W        W 6412   0.736  14.188   0.014
 5932W        W 6413   1.110  12.654   0.765
 5933W        W 6414   1.764  13.283   3.078
 5934W        W 6415   1.594  11.641   1.068
 5935W        W 6416   2.950  11.238   1.496
 5936W        W 6417   2.670  14.520   1.824
 5937W        W 6418   2.082  14.168   2.164
 5938W        W 6419   1.478  13.205   2.125
 5939W        W 6420   3.248  13.928   2.251
 5940W        W 6421   0.942  11.431   1.020
 5941W        W 6422   0.947  11.659   0.045
 5942W        W 6423   1.748  12.268   2.439
 5943W        W 6424   2.596  11.134   2.309
 5944W        W 6425   0.016  12.977   2.194
 5945W        W 6426   1.720  12.795   0.352
 5946W        W 6427   1.726  12.191   1.173
 5947W        W 6428   2.696  11.167   2.872
 5948W        W 6429   1.284  13.179   2.981
 5949W        W 6430   2.088  12.961   3.198
 5950W        W 6431   2.705  12.991   3.091
 5951W        W 6432   1.989  11.131   3.596
 5952W        W 6433   1.211  11.747   1.989
 5953W        W 6434   0.637  11.703   1.387
 5954W        W 6435   0.423  14.415   1.063
 5955W        W 6436   1.755  13.745   3.188
 5956W        W 6437   0.790  13.230   0.547
 5957W        W 6438   2.470  12.615   1.768
 5958W        W 6439   2.750  12.414   2.167
 5959W        W 6440   1.955  13.088   2.101
 5960W        W 6441   2.425  13.462   0.233
 5961W        W 6442   2.097  11.483   1.561
 5962W        W 6443   3.576  11.761   0.829
 5963W        W 6444   0.070  14.350   2.860
 5964W        W 6445   0.487  13.576   2.392
 5965W        W 6446   0.054  14.422   0.624
 5966W        W 6447   1.953  11.692   2.430
 5967W        W 6448   1.316  13.715   0.279
 5968W        W 6449   3.221  14.097   0.465
 5969W        W 6450   2.196  12.750   0.479
 5970W        W 6451   1.039  11.941   0.996
 5971W        W 6452   1.871  11.851   0.048
 5972W        W 6453   2.455  13.416   3.226
 5973W        W 6454   2.808  11.322   0.843
 5974W        W 6455   0.138  11.170   0.291
 5975W        W 6456   1.424  13.489   2.581
 5976W        W 6457   1.223  13.405   1.673
 5977W        W 6458   0.965  13.357   0.071
 5978W        W 6459   0.206  13.598   0.839
 5979W        W 6460   0.710  12.668   3.281
 5980W        W 6461   1.414  11.228   3.467
 5981W        W 6462   2.123  11.370   2.823
 5982W        W 6463   1.318  11.138   1.104
 5983W        W 6464   2.377  11.215   0.609
 5984W        W 6465   0.370  12.110   1.556
 5985W        W 6466   3.059  11.218   1.962
 5986W        W 6467   0.481  11.716   0.776
 5987W        W 6468   3.052  11.404   2.392
 5988W        W 6469   3.448  12.607   0.077
 5989W        W 6470   0.740  11.365   1.896
 5990W        W 6471   1.854  11.937   2.836
 5991W        W 6472   0.002  11.627   0.314
 5992W        W 6473   0.788  13.016   2.875
 5993W        W 6474   2.146  12.414   2.054
 5994W        W 6475   2.013  14.493   0.350
 5995W        W 6476   0.894  13.411   3.173
 5996W        W 6477   0.415  12.578   2.804
 5997W        W 6478   1.406  12.683   2.598
 5998W        W 6479   3.174  11.042   2.860
 5999W        W 6480   3.572  12.652   2.851
 6000W        W 6481   3.560  12.852   0.537
 6001W        W 6482   2.423  13.184   0.636
 6002W        W 6483   2.897  14.484   0.331
 6003W        W 6484   2.074  12.474   3.473
 6004W        W 6485   0.404  13.441   3.513
 6005W        W 6486   3.610  11.363   3.465
 6006W        W 6487   3.328  12.291   2.086
 6007W        W 6488   1.636  14.421   3.563
 6008W        W 6489   1.491  11.050   0.290
 6009W        W 6490   3.030  13.649   0.233
 6010W        W 6491   0.799  11.742   3.119
 6011W        W 6492   1.233  13.736   2.981
 6012W        W 6493   3.359  11.727   2.779
 6013W        W 6494   2.570  14.386   0.747
 6014W        W 6495   2.809  13.005   2.114
 6015W        W 6496   1.059  11.421   2.781
 6016W        W 6497   1.528  12.490   3.538
 6017W        W 6498   1.031  13.669   0.732
 6018W        W 6499   2.786  13.167   0.996
 6019W        W 6500   0.554  11.793   2.720
 6020W        W 6501   1.883  13.855   1.184
 6021W        W 6502   3.633  12.415   1.365
 6022W        W 6503   1.855  11.048   3.084
 6023W        W 6504   2.635  13.753   2.163
 6024W        W 6505   2.157  13.899   0.299
 6025W        W 6506   0.167  13.791   3.141
 6026W        W 6507   0.910  11.783   2.379
 6027W        W 6508   0.880  11.131   1.489
 6028W        W 6509   2.501  11.973   2.181
 6029W        W 6510   1.299  13.144   0.381
 6030W        W 6511   3.297  13.086   1.880
 6031W        W 6512   0.624  13.844   3.303
 6032W        W 6513   3.011  14.526   1.100
 6033W        W 6514   1.110  11.546   1.545
 6034W        W 6515   0.879  13.039   1.635
 6035W        W 6516   1.192  14.450   2.385
 6036W        W 6517   3.259  14.546   3.417
 6037W        W 6518   2.418  12.734   2.350
 6038W        W 6519   0.267  12.532   0.265
 6039W        W 6520   3.401  14.190   0.962
 6040W        W 6521   3.238  11.514   0.581
 6041W        W 6522   1.377  11.033   2.984
 6042W        W 6523   3.083  13.835   1.442
 6043W        W 6524   3.112  12.391   1.347
 6044W        W 6525   1.229  12.064   1.563
 6045W        W 6526   1.474  12.326   2.887
 6046W        W 6527   2.585  13.479   2.750
 6047W        W 6528   1.235  11.933   2.862
 6048W        W 6529   1.214  14.399   1.478
 6049W        W 6530   0.531  14.358   3.112
 6050W        W 6531   0.643  13.719   0.242
 6051W        W 6532   3.160  13.477   1.052
 6052W        W 6533   0.764  12.269   2.938
 6053W        W 6534   3.537  12.199   0.419
 6054W        W 6535   1.282  13.256   0.890
 6055W        W 6536   2.381  12.638   2.971
 6056W        W 6537   2.272  12.266   2.515
 6057W        W 6538   0.832  12.638   2.544
 6058W        W 6539   3.042  14.526   2.373
 6059W        W 6540   2.833  11.160   3.367
 6060W        W 6541   0.497  11.310   2.954
 6061W        W 6542   0.836  12.333   2.007
 6062W        W 6543   1.205  12.147   0.129
 6063W        W 6544   0.008  13.906   2.674
 6064W        W 6545   1.593  12.615   2.117
 6065W        W 6546   1.416  11.640   0.222
 6066W        W 6547   0.551  12.456   1.003
 6067W        W 6548   0.322  14.308   2.440
 6068W        W 6549   3.117  12.534   0.548
 6069W        W 6550   3.212  11.450   3.234
 6070W        W 6551   2.648  13.659   1.197
 6071W        W 6552   0.246  12.583   3.374
 6072W        W 6553   3.212  11.047   0.670
 6073W        W 6554   2.732  13.522   0.681
 6074W        W 6555   1.634  12.580   0.766
 6075W        W 6556   2.821  11.384   0.289
 6076W        W 6557   0.595  12.584   1.682
 6077W        W 6558   0.889  13.523   1.331
 6078W        W 6559   2.652  12.143   1.296
 6079W        W 6560   1.675  11.522   1.992
 6080W        W 6561   3.637  13.433   2.503
 6081W        W 6562   3.555  11.420   2.064
 6082W        W 6563   0.094  14.250   1.440
 6083W        W 6564   0.603  13.437   0.976
 6084W        W 6565   0.518  11.054   3.529
 6085W        W 6566   1.637  13.907   3.631
 6086W        W 6567   3.392  12.875   1.421
 6087W        W 6568   2.746  13.052   0.301
 6088W        W 6569   2.041  14.573   2.513
 6089W        W 6570   2.898  13.295   3.550
 6090W        W 6571   1.713  11.005   0.830
 6091W        W 6572   2.426  11.874   1.689
 6092W        W 6573   0.112  13.461   2.021
 6093W        W 6574   1.365  11.423   0.662
 6094W        W 6575   1.169  12.907   3.511
 6095W        W 6576   2.163  11.888   1.225
 6096W        W 6577   2.368  13.298   2.347
 6097W        W 6578   0.522  13.903   2.782
 6098W        W 6579   0.964  11.683   0.519
 6099W        W 6580   2.481  11.825   0.844
 6100W        W 6581   2.439  13.933   3.081
 6101W        W 6582   1.124  12.525   1.680
 6102W        W 6583   0.779  14.223   2.545
 6103W        W 6584   3.524  14.340   0.146
 6104W        W 6585   0.387  13.012   3.142
 6105W        W 6586   2.382  13.274   1.830
 6106W        W 6587   0.818  12.923   1.072
 6107W        W 6588   1.189  13.930   2.467
 6108W        W 6589   1.567  11.349   1.508
 6109W        W 6590   0.178  13.333   0.438
 6110W        W 6591   1.697  12.284   0.308
 6111W        W 6592   0.343  12.833   1.327
 6112W        W 6593   1.633  11.475   2.791
 6113W        W 6594   3.305  11.184   0.218
 6114W        W 6595   3.398  12.930   3.317
 6115W        W 6596   2.052  14.187   3.469
 6116W        W 6597   3.610  13.281   2.991
 6117W        W 6598   3.018  14.079   3.602
 6118W        W 6599   0.757  14.535   2.080
 6119W        W 6600   3.616  13.157   0.954
 6120W        W 6601   2.146  12.424   1.467
 6121W        W 6602   1.913  11.036   1.357
 6122W        W 6603   0.972  14.020   1.194
 6123W        W 6604   1.471  11.761   2.419
 6124W        W 6605   1.171  11.130   1.888
 6125W        W 6606   0.234  13.952   0.436
 6126W        W 6607   2.050  13.316   1.154
 6127W        W 6608   0.925  14.111   3.033
 6128W        W 6609   0.402  12.934   0.729
 6129W        W 6610   0.287  11.477   1.728
 6130W        W 6611   1.835  13.442   1.785
 6131W        W 6612   0.087  11.296   0.805
 6132W        W 6613   2.751  12.502   2.732
 6133W        W 6614   2.628  11.888   0.304
 6134W        W 6615   3.145  13.560   1.952
 6135W        W 6616   1.806  14.044   1.783
 6136W        W 6617   1.218  14.148   0.694
 6137W        W 6618   0.300  14.311   1.865
 6138W        W 6619   2.497  12.069   3.500
 6139W        W 6620   0.480  11.599   3.499
 6140W        W 6621   0.211  12.199   0.832
 6141W        W 6622   0.902  12.188   0.557
 6142W        W 6623   2.665  12.515   3.374
 6143W        W 6624   2.482  11.082   1.203
 6144W        W 6625   1.613  14.513   1.706
 6145W        W 6626   2.827  13.975   2.643
 6146W        W 6627   2.411  14.124   1.754
 6147W        W 6628   2.430  13.104   1.348
 6148W        W 6629   1.892  11.329   0.419
 6149W        W 6630   3.573  10.957   1.141
 6150W        W 6631   1.261  12.592   0.304
 6151W        W 6632   3.427  11.929   1.294
 6152W        W 6633   2.119  13.099   0.171
 6153W        W 6634   3.055  13.299   2.919
 6154W        W 6635   2.709  14.000   0.386
 6155W        W 6636   1.324  11.675   3.292
 6156W        W 6637   1.144  12.259   2.533
 6157W        W 6638   3.236  13.754   2.810
 6158W        W 6639   2.336  11.704   3.187
 6159W        W 6640   0.180  12.175   2.964
 6160W        W 6641   1.940  12.652   2.690
 6161W        W 6642   0.297  13.410   1.347
 6162W        W 6643   0.444  12.707   2.237
 6163W        W 6644   2.761  12.993   2.587
 6164W        W 6645   2.533  14.373   3.398
 6165W        W 6646   2.429  12.112   2.951
 6166W        W 6647   2.706  14.166   1.356
 6167W        W 6648   1.708  13.886   2.679
 6168W        W 6649   1.193  14.241   1.948
 6169W        W 6650   2.998  13.412   2.367
 6170W        W 6651   2.048  13.484   3.504
 6171W        W 6652   0.653  13.437   1.843
 6172W        W 6653   2.999  13.196   1.488
 6173W        W 6654   2.640  14.262   2.239
 6174W        W 6655   0.618  13.991   2.109
 6175W        W 6656   1.639  12.043   3.319
 6176W        W 6657   2.090  14.209   0.830
 6177W        W 6658   1.398  13.464   3.468
 6178W        W 6659   1.524  13.702   0.845
 6179W        W 6660   0.745  12.442   0.104
 6180W        W 6661   0.084  14.528   7.003
 6181W        W 6662   0.460  13.421   6.526
 6182W        W 6663   3.165  13.151   4.296
 6183W        W 6664   3.295  14.236   6.323
 6184W        W 6665   1.213  14.227   3.849
 6185W        W 6666   1.296  12.379   4.832
 6186W        W 6667   0.811  12.227   4.996
 6187W        W 6668   1.802  13.042   4.430
 6188W        W 6669   1.477  14.134   6.785
 6189W        W 6670   0.126  11.695   6.748
 6190W        W 6671   0.888  10.975   6.550
 6191W        W 6672   2.582  11.363   5.437
 6192W        W 6673   2.231  12.234   4.007
 6193W        W 6674   2.801  11.668   7.098
 6194W        W 6675   0.167  11.460   6.223
 6195W        W 6676   0.266  14.079   7.244
 6196W        W 6677   1.788  13.469   3.976
 6197W        W 6678   0.220  12.252   5.669
 6198W        W 6679   1.113  12.143   6.906
 6199W        W 6680   3.572  12.002   5.405
 6200W        W 6681   3.336  13.045   6.264
 6201W        W 6682   1.644  12.378   5.291
 6202W        W 6683   2.190  13.717   5.660
 6203W        W 6684   0.690  13.151   5.892
 6204W        W 6685   0.049  12.679   5.463
 6205W        W 6686   1.085  12.651   6.655
 6206W        W 6687   3.356  12.434   6.909
 6207W        W 6688   0.972  13.878   5.354
 6208W        W 6689   2.093  13.567   6.488
 6209W        W 6690   1.313  12.207   5.713
 6210W        W 6691   1.605  12.991   5.356
 6211W        W 6692   2.602  13.764   7.204
 6212W        W 6693   1.681  13.084   7.214
 6213W        W 6694   1.662  12.800   6.692
 6214W        W 6695   0.071  12.191   7.214
 6215W        W 6696   2.903  13.726   6.813
 6216W        W 6697   0.484  11.308   4.811
 6217W        W 6698   3.474  13.349   5.100
 6218W        W 6699   2.887  11.749   5.667
 6219W        W 6700   3.172  11.702   3.762
 6220W        W 6701   3.637  12.503   6.068
 6221W        W 6702   1.604  14.210   5.821
 6222W        W 6703   3.378  13.676   4.259
 6223W        W 6704   0.507  14.462   4.013
 6224W        W 6705   0.900  14.508   4.689
 6225W        W 6706   0.697  11.262   6.115
 6226W        W 6707   3.320  12.280   6.390
 6227W        W 6708   2.725  12.702   4.849
 6228W        W 6709   2.691  12.390   3.876
 6229W        W 6710   1.899  13.534   6.016
 6230W        W 6711   1.705  11.864   5.215
 6231W        W 6712   2.305  13.951   6.209
 6232W        W 6713   3.176  12.742   4.631
 6233W        W 6714   2.078  11.400   4.647
 6234W        W 6715   0.735  14.094   4.330
 6235W        W 6716   0.106  11.593   4.929
 6236W        W 6717   2.892  12.200   5.403
 6237W        W 6718   0.350  13.817   5.318
 6238W        W 6719   1.691  14.167   4.188
 6239W        W 6720   3.083  12.193   3.652
 6240W        W 6721   0.106  13.951   5.816
 6241W        W 6722   0.897  13.523   6.296
 6242W        W 6723   1.270  12.883   4.915
 6243W        W 6724   1.292  11.288   6.008
 6244W        W 6725   3.521  11.050   5.305
 6245W        W 6726   0.740  12.922   3.773
 6246W        W 6727   0.395  11.955   3.952
 6247W        W 6728   0.457  13.911   4.746
 6248W        W 6729   1.588  13.394   4.994
 6249W        W 6730   2.920  14.253   6.708
 6250W        W 6731   1.846  11.895   4.392
 6251W        W 6732   3.229  14.293   5.164
 6252W        W 6733   2.906  12.146   6.762
 6253W        W 6734   3.619  13.802   4.896
 6254W        W 6735   2.246  13.094   6.380
 6255W        W 6736   0.012  12.645   4.586
 6256W        W 6737   1.123  13.060   6.159
 6257W        W 6738   2.327  12.324   4.537
 6258W        W 6739   2.204  12.814   4.641
 6259W        W 6740   0.547  12.234   6.115
 6260W        W 6741   0.532  12.110   7.037
 6261W        W 6742   0.422  11.027   5.196
 6262W        W 6743   2.190  11.374   5.757
 6263W        W 6744   1.838  11.559   6.920
 6264W        W 6745   2.193  11.708   4.098
 6265W        W 6746   3.376  14.101   6.852
 6266W        W 6747   2.343  11.182   6.891
 6267W        W 6748   3.362  13.483   7.013
 6268W        W 6749   2.792  11.650   6.609
 6269W        W 6750   2.592  11.588   4.879
 6270W        W 6751   2.985  12.722   7.283
 6271W        W 6752   0.725  14.298   5.269
 6272W        W 6753   1.383  12.015   4.255
 6273W        W 6754   0.952  11.299   6.919
 6274W        W 6755   3.004  11.783   4.600
 6275W        W 6756   3.371  12.265   4.545
 6276W        W 6757   1.114  14.482   7.016
 6277W        W 6758   1.040  11.018   4.251
 6278W        W 6759   3.361  11.552   5.286
 6279W        W 6760   3.511  13.801   3.731
 6280W        W 6761   0.418  13.004   5.433
 6281W        W 6762   2.335  11.591   3.663
 6282W        W 6763   3.469  13.923   5.383
 6283W        W 6764   3.508  11.117   6.133
 6284W        W 6765   1.953  12.329   6.687
 6285W        W 6766   2.046  13.668   4.390
 6286W        W 6767   2.446  12.962   7.130
 6287W        W 6768   2.120  10.939   5.439
 6288W        W 6769   0.732  11.842   5.502
 6289W        W 6770   0.286  13.042   6.276
 6290W        W 6771   2.145  14.235   4.982
 6291W        W 6772   3.339  11.832   5.854
 6292W        W 6773   1.976  14.179   6.621
 6293W        W 6774   3.319  13.238   3.826
 6294W        W 6775   1.754  12.721   4.887
 6295W        W 6776   3.606  11.232   6.628
 6296W        W 6777   1.755  13.067   6.222
 6297W        W 6778   1.972  11.953   5.667
 6298W        W 6779   2.824  12.251   4.505
 6299W        W 6780   3.111  11.984   4.147
 6300W        W 6781   2.920  14.024   4.536
 6301W        W 6782   2.754  13.627   5.332
 6302W        W 6783   2.650  12.706   4.310
 6303W        W 6784   2.083  12.916   5.296
 6304W        W 6785   2.964  12.704   5.363
 6305W        W 6786   0.339  11.719   5.787
 6306W        W 6787   3.117  12.771   6.614
 6307W        W 6788   3.468  14.389   5.760
 6308W        W 6789   1.398  13.833   5.162
 6309W        W 6790   2.405  14.366   6.486
 6310W        W 6791   2.399  11.696   6.250
 6311W        W 6792   1.606  14.404   6.311
 6312W        W 6793   3.303  11.358   4.777
 6313W        W 6794   3.094  12.677   6.078
 6314W        W 6795   0.077  11.998   6.116
 6315W        W 6796   2.937  11.793   5.134
 6316W        W 6797   3.348  11.944   6.911
 6317W        W 6798   2.233  13.643   5.129
 6318W        W 6799   1.489  14.234   4.742
 6319W        W 6800   0.604  11.414   4.000
 6320W        W 6801   1.708  11.068   5.810
 6321W        W 6802   0.736  14.188   3.658
 6322W        W 6803   1.110  12.654   4.409
 6323W        W 6804   1.764  13.283   6.722
 6324W        W 6805   1.594  11.641   4.712
 6325W        W 6806   2.950  11.238   5.140
 6326W        W 6807   2.670  14.520   5.468
 6327W        W 6808   2.082  14.168   5.808
 6328W        W 6809   1.478  13.205   5.769
 6329W        W 6810   3.248  13.928   5.895
 6330W        W 6811   0.942  11.431   4.664
 6331W        W 6812   1.464  13.728   5.624
 6332W        W 6813   0.947  11.659   3.689
 6333W        W 6814   1.748  12.268   6.083
 6334W        W 6815   2.596  11.134   5.953
 6335W        W 6816   0.016  12.977   5.838
 6336W        W 6817   1.720  12.795   3.996
 6337W        W 6818   0.988  11.110   3.766
 6338W        W 6819   1.726  12.191   4.817
 6339W        W 6820   2.696  11.167   6.516
 6340W        W 6821   1.284  13.179   6.625
 6341W        W 6822   2.088  12.961   6.842
 6342W        W 6823   2.705  12.991   6.735
 6343W        W 6824   1.989  11.131   7.240
 6344W        W 6825   1.211  11.747   5.633
 6345W        W 6826   0.637  11.703   5.031
 6346W        W 6827   0.423  14.415   4.707
 6347W        W 6828   1.755  13.745   6.832
 6348W        W 6829   0.790  13.230   4.191
 6349W        W 6830   2.470  12.615   5.412
 6350W        W 6831   2.750  12.414   5.811
 6351W        W 6832   1.955  13.088   5.745
 6352W        W 6833   2.425  13.462   3.877
 6353W        W 6834   2.097  11.483   5.205
 6354W        W 6835   3.576  11.761   4.473
 6355W        W 6836   0.070  14.350   6.504
 6356W        W 6837   0.487  13.576   6.036
 6357W        W 6838   0.054  14.422   4.268
 6358W        W 6839   1.953  11.692   6.074
 6359W        W 6840   1.316  13.715   3.923
 6360W        W 6841   3.221  14.097   4.109
 6361W        W 6842   2.196  12.750   4.123
 6362W        W 6843   1.039  11.941   4.640
 6363W        W 6844   1.871  11.851   3.692
 6364W        W 6845   2.455  13.416   6.870
 6365W        W 6846   2.808  11.322   4.487
 6366W        W 6847   0.138  11.170   3.935
 6367W        W 6848   1.424  13.489   6.225
 6368W        W 6849   1.223  13.405   5.317
 6369W        W 6850   0.965  13.357   3.715
 6370W        W 6851   0.206  13.598   4.483
 6371W        W 6852   0.710  12.668   6.925
 6372W        W 6853   1.414  11.228   7.111
 6373W        W 6854   2.123  11.370   6.467
 6374W        W 6855   1.318  11.138   4.748
 6375W        W 6856   2.377  11.215   4.253
 6376W        W 6857   0.322  11.147   5.830
 6377W        W 6858   0.370  12.110   5.200
 6378W        W 6859   3.059  11.218   5.606
 6379W        W 6860   0.481  11.716   4.420
 6380W        W 6861   3.052  11.404   6.036
 6381W        W 6862   3.448  12.607   3.721
 6382W        W 6863   0.740  11.365   5.540
 6383W        W 6864   1.854  11.937   6.480
 6384W        W 6865   0.002  11.627   3.958
 6385W        W 6866   0.788  13.016   6.519
 6386W        W 6867   2.146  12.414   5.698
 6387W        W 6868   2.013  14.493   3.994
 6388W        W 6869   0.159  13.000   3.691
 6389W        W 6870   0.894  13.411   6.817
 6390W        W 6871   0.415  12.578   6.448
 6391W        W 6872   1.406  12.683   6.242
 6392W        W 6873   3.174  11.042   6.504
 6393W        W 6874   3.572  12.652   6.495
 6394W        W 6875   3.560  12.852   4.181
 6395W        W 6876   2.423  13.184   4.280
 6396W        W 6877   2.897  14.484   3.975
 6397W        W 6878   2.074  12.474   7.117
 6398W        W 6879   0.404  13.441   7.157
 6399W        W 6880   3.610  11.363   7.109
 6400W        W 6881   3.328  12.291   5.730
 6401W        W 6882   1.636  14.421   7.207
 6402W        W 6883   1.491  11.050   3.934
 6403W        W 6884   3.030  13.649   3.877
 6404W        W 6885   0.799  11.742   6.763
 6405W        W 6886   1.233  13.736   6.625
 6406W        W 6887   3.359  11.727   6.423
 6407W        W 6888   2.570  14.386   4.391
 6408W        W 6889   2.809  13.005   5.758
 6409W        W 6890   1.059  11.421   6.425
 6410W        W 6891   1.528  12.490   7.182
 6411W        W 6892   1.031  13.669   4.376
 6412W        W 6893   2.786  13.167   4.640
 6413W        W 6894   0.554  11.793   6.364
 6414W        W 6895   1.883  13.855   4.828
 6415W        W 6896   3.633  12.415   5.009
 6416W        W 6897   1.855  11.048   6.728
 6417W        W 6898   2.635  13.753   5.807
 6418W        W 6899   2.938  14.097   5.515
 6419W        W 6900   2.157  13.899   3.943
 6420W        W 6901   0.167  13.791   6.785
 6421W        W 6902   0.910  11.783   6.023
 6422W        W 6903   0.880  11.131   5.133
 6423W        W 6904   2.501  11.973   5.825
 6424W        W 6905   1.299  13.144   4.025
 6425W        W 6906   3.297  13.086   5.524
 6426W        W 6907   0.624  13.844   6.947
 6427W        W 6908   3.011  14.526   4.744
 6428W        W 6909   1.110  11.546   5.189
 6429W        W 6910   0.879  13.039   5.279
 6430W        W 6911   1.192  14.450   6.029
 6431W        W 6912   3.259  14.546   7.061
 6432W        W 6913   2.418  12.734   5.994
 6433W        W 6914   0.267  12.532   3.909
 6434W        W 6915   3.401  14.190   4.606
 6435W        W 6916   3.238  11.514   4.225
 6436W        W 6917   1.377  11.033   6.628
 6437W        W 6918   3.083  13.835   5.086
 6438W        W 6919   3.112  12.391   4.991
 6439W        W 6920   1.229  12.064   5.207
 6440W        W 6921   1.474  12.326   6.531
 6441W        W 6922   2.585  13.479   6.394
 6442W        W 6923   1.214  14.399   5.122
 6443W        W 6924   0.531  14.358   6.756
 6444W        W 6925   0.643  13.719   3.886
 6445W        W 6926   3.160  13.477   4.696
 6446W        W 6927   0.764  12.269   6.582
 6447W        W 6928   3.537  12.199   4.063
 6448W        W 6929   1.282  13.256   4.534
 6449W        W 6930   2.381  12.638   6.615
 6450W        W 6931   2.272  12.266   6.159
 6451W        W 6932   0.832  12.638   6.188
 6452W        W 6933   3.042  14.526   6.017
 6453W        W 6934   2.833  11.160   7.011
 6454W        W 6935   0.497  11.310   6.598
 6455W        W 6936   0.836  12.333   5.651
 6456W        W 6937   1.205  12.147   3.773
 6457W        W 6938   0.008  13.906   6.318
 6458W        W 6939   1.593  12.615   5.761
 6459W        W 6940   1.416  11.640   3.866
 6460W        W 6941   0.551  12.456   4.647
 6461W        W 6942   0.322  14.308   6.084
 6462W        W 6943   3.117  12.534   4.192
 6463W        W 6944   3.212  11.450   6.878
 6464W        W 6945   2.648  13.659   4.841
 6465W        W 6946   0.246  12.583   7.018
 6466W        W 6947   3.212  11.047   4.314
 6467W        W 6948   2.732  13.522   4.325
 6468W        W 6949   1.634  12.580   4.410
 6469W        W 6950   2.821  11.384   3.933
 6470W        W 6951   2.886  11.991   6.119
 6471W        W 6952   0.595  12.584   5.326
 6472W        W 6953   0.889  13.523   4.975
 6473W        W 6954   2.652  12.143   4.940
 6474W        W 6955   1.675  11.522   5.636
 6475W        W 6956   3.637  13.433   6.147
 6476W        W 6957   3.555  11.420   5.708
 6477W        W 6958   0.094  14.250   5.084
 6478W        W 6959   0.603  13.437   4.620
 6479W        W 6960   0.518  11.054   7.173
 6480W        W 6961   1.637  13.907   7.275
 6481W        W 6962   3.392  12.875   5.065
 6482W        W 6963   2.746  13.052   3.945
 6483W        W 6964   2.041  14.573   6.157
 6484W        W 6965   2.898  13.295   7.194
 6485W        W 6966   1.713  11.005   4.474
 6486W        W 6967   2.426  11.874   5.333
 6487W        W 6968   0.112  13.461   5.665
 6488W        W 6969   1.365  11.423   4.306
 6489W        W 6970   1.169  12.907   7.155
 6490W        W 6971   2.163  11.888   4.869
 6491W        W 6972   2.368  13.298   5.991
 6492W        W 6973   0.522  13.903   6.426
 6493W        W 6974   1.113  13.886   7.149
 6494W        W 6975   0.964  11.683   4.163
 6495W        W 6976   2.481  11.825   4.488
 6496W        W 6977   2.439  13.933   6.725
 6497W        W 6978   1.124  12.525   5.324
 6498W        W 6979   0.779  14.223   6.189
 6499W        W 6980   3.524  14.340   3.790
 6500W        W 6981   0.387  13.012   6.786
 6501W        W 6982   2.382  13.274   5.474
 6502W        W 6983   0.818  12.923   4.716
 6503W        W 6984   1.189  13.930   6.111
 6504W        W 6985   1.567  11.349   5.152
 6505W        W 6986   0.178  13.333   4.082
 6506W        W 6987   1.697  12.284   3.952
 6507W        W 6988   0.343  12.833   4.971
 6508W        W 6989   1.633  11.475   6.435
 6509W        W 6990   3.305  11.184   3.862
 6510W        W 6991   2.052  14.187   7.113
 6511W        W 6992   3.610  13.281   6.635
 6512W        W 6993   3.018  14.079   7.246
 6513W        W 6994   0.757  14.535   5.724
 6514W        W 6995   3.616  13.157   4.598
 6515W        W 6996   2.146  12.424   5.111
 6516W        W 6997   1.913  11.036   5.001
 6517W        W 6998   0.972  14.020   4.838
 6518W        W 6999   1.471  11.761   6.063
 6519W        W 7000   1.171  11.130   5.532
 6520W        W 7001   0.234  13.952   4.080
 6521W        W 7002   2.050  13.316   4.798
 6522W        W 7003   0.925  14.111   6.677
 6523W        W 7004   0.402  12.934   4.373
 6524W        W 7005   0.287  11.477   5.372
 6525W        W 7006   1.835  13.442   5.429
 6526W        W 7007   0.087  11.296   4.449
 6527W        W 7008   2.751  12.502   6.376
 6528W        W 7009   2.628  11.888   3.948
 6529W        W 7010   3.145  13.560   5.596
 6530W        W 7011   1.806  14.044   5.427
 6531W        W 7012   1.218  14.148   4.338
 6532W        W 7013   2.500  11.051   3.768
 6533W        W 7014   0.300  14.311   5.509
 6534W        W 7015   2.497  12.069   7.144
 6535W        W 7016   0.480  11.599   7.143
 6536W        W 7017   0.211  12.199   4.476
 6537W        W 7018   0.902  12.188   4.201
 6538W        W 7019   2.665  12.515   7.018
 6539W        W 7020   1.008  12.796   5.727
 6540W        W 7021   2.482  11.082   4.847
 6541W        W 7022   1.613  14.513   5.350
 6542W        W 7023   2.827  13.975   6.287
 6543W        W 7024   2.411  14.124   5.398
 6544W        W 7025   2.430  13.104   4.992
 6545W        W 7026   1.892  11.329   4.063
 6546W        W 7027   3.573  10.957   4.785
 6547W        W 7028   1.261  12.592   3.948
 6548W        W 7029   3.427  11.929   4.938
 6549W        W 7030   2.119  13.099   3.815
 6550W        W 7031   3.055  13.299   6.563
 6551W        W 7032   2.709  14.000   4.030
 6552W        W 7033   1.324  11.675   6.936
 6553W        W 7034   1.144  12.259   6.177
 6554W        W 7035   3.236  13.754   6.454
 6555W        W 7036   2.336  11.704   6.831
 6556W        W 7037   0.180  12.175   6.608
 6557W        W 7038   1.940  12.652   6.334
 6558W        W 7039   0.297  13.410   4.991
 6559W        W 7040   0.444  12.707   5.881
 6560W        W 7041   2.761  12.993   6.231
 6561W        W 7042   2.533  14.373   7.042
 6562W        W 7043   2.429  12.112   6.595
 6563W        W 7044   2.706  14.166   5.000
 6564W        W 7045   1.708  13.886   6.323
 6565W        W 7046   1.193  14.241   5.592
 6566W        W 7047   2.998  13.412   6.011
 6567W        W 7048   2.048  13.484   7.148
 6568W        W 7049   0.653  13.437   5.487
 6569W        W 7050   2.999  13.196   5.132
 6570W        W 7051   2.640  14.262   5.883
 6571W        W 7052   0.618  13.991   5.753
 6572W        W 7053   1.639  12.043   6.963
 6573W        W 7054   2.090  14.209   4.474
 6574W        W 7055   1.524  13.702   4.489
 6575W        W 7056   0.745  12.442   3.748
 6576W        W 7057   0.084  14.528  10.648
 6577W        W 7058   0.460  13.421  10.171
 6578W        W 7059   3.165  13.151   7.941
 6579W        W 7060   3.295  14.236   9.968
 6580W        W 7061   1.213  14.227   7.494
 6581W        W 7062   1.296  12.379   8.477
 6582W        W 7063   0.811  12.227   8.641
 6583W        W 7064   1.802  13.042   8.075
 6584W        W 7065   1.477  14.134  10.430
 6585W        W 7066   0.126  11.695  10.393
 6586W        W 7067   0.888  10.975  10.195
 6587W        W 7068   2.582  11.363   9.082
 6588W        W 7069   2.231  12.234   7.652
 6589W        W 7070   2.801  11.668  10.743
 6590W        W 7071   0.167  11.460   9.868
 6591W        W 7072   0.266  14.079  10.889
 6592W        W 7073   1.788  13.469   7.621
 6593W        W 7074   0.220  12.252   9.314
 6594W        W 7075   1.113  12.143  10.551
 6595W        W 7076   3.572  12.002   9.050
 6596W        W 7077   3.336  13.045   9.909
 6597W        W 7078   1.644  12.378   8.936
 6598W        W 7079   2.190  13.717   9.305
 6599W        W 7080   0.690  13.151   9.537
 6600W        W 7081   0.049  12.679   9.108
 6601W        W 7082   1.085  12.651  10.300
 6602W        W 7083   3.356  12.434  10.554
 6603W        W 7084   0.972  13.878   8.999
 6604W        W 7085   2.093  13.567  10.133
 6605W        W 7086   1.313  12.207   9.358
 6606W        W 7087   1.605  12.991   9.001
 6607W        W 7088   2.602  13.764  10.849
 6608W        W 7089   1.681  13.084  10.859
 6609W        W 7090   1.662  12.800  10.337
 6610W        W 7091   0.071  12.191  10.859
 6611W        W 7092   2.903  13.726  10.458
 6612W        W 7093   0.484  11.308   8.456
 6613W        W 7094   1.011  13.566   9.455
 6614W        W 7095   3.474  13.349   8.745
 6615W        W 7096   2.887  11.749   9.312
 6616W        W 7097   3.172  11.702   7.407
 6617W        W 7098   3.637  12.503   9.713
 6618W        W 7099   1.604  14.210   9.466
 6619W        W 7100   3.378  13.676   7.904
 6620W        W 7101   0.507  14.462   7.658
 6621W        W 7102   0.900  14.508   8.334
 6622W        W 7103   0.697  11.262   9.760
 6623W        W 7104   3.320  12.280  10.035
 6624W        W 7105   2.725  12.702   8.494
 6625W        W 7106   2.691  12.390   7.521
 6626W        W 7107   1.899  13.534   9.661
 6627W        W 7108   1.705  11.864   8.860
 6628W        W 7109   2.305  13.951   9.854
 6629W        W 7110   3.176  12.742   8.276
 6630W        W 7111   2.078  11.400   8.292
 6631W        W 7112   0.735  14.094   7.975
 6632W        W 7113   0.106  11.593   8.574
 6633W        W 7114   2.892  12.200   9.048
 6634W        W 7115   0.350  13.817   8.963
 6635W        W 7116   1.691  14.167   7.833
 6636W        W 7117   0.106  13.951   9.461
 6637W        W 7118   0.897  13.523   9.941
 6638W        W 7119   1.270  12.883   8.560
 6639W        W 7120   1.292  11.288   9.653
 6640W        W 7121   3.521  11.050   8.950
 6641W        W 7122   0.740  12.922   7.418
 6642W        W 7123   0.395  11.955   7.597
 6643W        W 7124   0.457  13.911   8.391
 6644W        W 7125   1.588  13.394   8.639
 6645W        W 7126   2.920  14.253  10.353
 6646W        W 7127   1.846  11.895   8.037
 6647W        W 7128   3.229  14.293   8.809
 6648W        W 7129   2.906  12.146  10.407
 6649W        W 7130   3.619  13.802   8.541
 6650W        W 7131   2.246  13.094  10.025
 6651W        W 7132   0.012  12.645   8.231
 6652W        W 7133   1.123  13.060   9.804
 6653W        W 7134   2.327  12.324   8.182
 6654W        W 7135   0.547  12.234   9.760
 6655W        W 7136   0.532  12.110  10.682
 6656W        W 7137   0.422  11.027   8.841
 6657W        W 7138   2.190  11.374   9.402
 6658W        W 7139   1.838  11.559  10.565
 6659W        W 7140   2.193  11.708   7.743
 6660W        W 7141   3.376  14.101  10.497
 6661W        W 7142   2.343  11.182  10.536
 6662W        W 7143   3.362  13.483  10.658
 6663W        W 7144   2.792  11.650  10.254
 6664W        W 7145   2.592  11.588   8.524
 6665W        W 7146   2.985  12.722  10.928
 6666W        W 7147   0.725  14.298   8.914
 6667W        W 7148   1.383  12.015   7.900
 6668W        W 7149   0.952  11.299  10.564
 6669W        W 7150   3.371  12.265   8.190
 6670W        W 7151   1.114  14.482  10.661
 6671W        W 7152   1.040  11.018   7.896
 6672W        W 7153   3.361  11.552   8.931
 6673W        W 7154   3.511  13.801   7.376
 6674W        W 7155   0.418  13.004   9.078
 6675W        W 7156   2.335  11.591   7.308
 6676W        W 7157   3.469  13.923   9.028
 6677W        W 7158   3.508  11.117   9.778
 6678W        W 7159   1.953  12.329  10.332
 6679W        W 7160   2.046  13.668   8.035
 6680W        W 7161   2.446  12.962  10.775
 6681W        W 7162   2.120  10.939   9.084
 6682W        W 7163   0.732  11.842   9.147
 6683W        W 7164   0.286  13.042   9.921
 6684W        W 7165   2.145  14.235   8.627
 6685W        W 7166   3.339  11.832   9.499
 6686W        W 7167   1.976  14.179  10.266
 6687W        W 7168   3.319  13.238   7.471
 6688W        W 7169   1.754  12.721   8.532
 6689W        W 7170   3.606  11.232  10.273
 6690W        W 7171   1.755  13.067   9.867
 6691W        W 7172   1.972  11.953   9.312
 6692W        W 7173   2.824  12.251   8.150
 6693W        W 7174   3.111  11.984   7.792
 6694W        W 7175   2.920  14.024   8.181
 6695W        W 7176   2.754  13.627   8.977
 6696W        W 7177   2.650  12.706   7.955
 6697W        W 7178   2.083  12.916   8.941
 6698W        W 7179   2.964  12.704   9.008
 6699W        W 7180   0.339  11.719   9.432
 6700W        W 7181   3.117  12.771  10.259
 6701W        W 7182   3.468  14.389   9.405
 6702W        W 7183   1.398  13.833   8.807
 6703W        W 7184   2.405  14.366  10.131
 6704W        W 7185   2.399  11.696   9.895
 6705W        W 7186   1.606  14.404   9.956
 6706W        W 7187   3.303  11.358   8.422
 6707W        W 7188   3.094  12.677   9.723
 6708W        W 7189   0.077  11.998   9.761
 6709W        W 7190   2.937  11.793   8.779
 6710W        W 7191   3.348  11.944  10.556
 6711W        W 7192   2.233  13.643   8.774
 6712W        W 7193   0.604  11.414   7.645
 6713W        W 7194   1.708  11.068   9.455
 6714W        W 7195   0.736  14.188   7.303
 6715W        W 7196   1.764  13.283  10.367
 6716W        W 7197   1.594  11.641   8.357
 6717W        W 7198   2.950  11.238   8.785
 6718W        W 7199   2.670  14.520   9.113
 6719W        W 7200   2.082  14.168   9.453
 6720W        W 7201   1.478  13.205   9.414
 6721W        W 7202   3.248  13.928   9.540
 6722W        W 7203   0.942  11.431   8.309
 6723W        W 7204   1.464  13.728   9.269
 6724W        W 7205   0.947  11.659   7.334
 6725W        W 7206   1.748  12.268   9.728
 6726W        W 7207   2.596  11.134   9.598
 6727W        W 7208   0.016  12.977   9.483
 6728W        W 7209   1.720  12.795   7.641
 6729W        W 7210   0.988  11.110   7.411
 6730W        W 7211   1.726  12.191   8.462
 6731W        W 7212   2.696  11.167  10.161
 6732W        W 7213   1.284  13.179  10.270
 6733W        W 7214   2.088  12.961  10.487
 6734W        W 7215   2.705  12.991  10.380
 6735W        W 7216   1.989  11.131  10.885
 6736W        W 7217   1.211  11.747   9.278
 6737W        W 7218   0.637  11.703   8.676
 6738W        W 7219   0.423  14.415   8.352
 6739W        W 7220   1.755  13.745  10.477
 6740W        W 7221   0.790  13.230   7.836
 6741W        W 7222   2.470  12.615   9.057
 6742W        W 7223   2.750  12.414   9.456
 6743W        W 7224   1.955  13.088   9.390
 6744W        W 7225   2.425  13.462   7.522
 6745W        W 7226   2.097  11.483   8.850
 6746W        W 7227   3.576  11.761   8.118
 6747W        W 7228   0.070  14.350  10.149
 6748W        W 7229   0.487  13.576   9.681
 6749W        W 7230   0.054  14.422   7.913
 6750W        W 7231   1.953  11.692   9.719
 6751W        W 7232   1.316  13.715   7.568
 6752W        W 7233   2.196  12.750   7.768
 6753W        W 7234   1.039  11.941   8.285
 6754W        W 7235   1.871  11.851   7.337
 6755W        W 7236   2.455  13.416  10.515
 6756W        W 7237   2.808  11.322   8.132
 6757W        W 7238   0.138  11.170   7.580
 6758W        W 7239   1.424  13.489   9.870
 6759W        W 7240   1.223  13.405   8.962
 6760W        W 7241   0.965  13.357   7.360
 6761W        W 7242   0.206  13.598   8.128
 6762W        W 7243   0.710  12.668  10.570
 6763W        W 7244   1.414  11.228  10.756
 6764W        W 7245   2.123  11.370  10.112
 6765W        W 7246   1.318  11.138   8.393
 6766W        W 7247   2.377  11.215   7.898
 6767W        W 7248   0.322  11.147   9.475
 6768W        W 7249   0.370  12.110   8.845
 6769W        W 7250   3.059  11.218   9.251
 6770W        W 7251   0.481  11.716   8.065
 6771W        W 7252   3.052  11.404   9.681
 6772W        W 7253   3.448  12.607   7.366
 6773W        W 7254   0.740  11.365   9.185
 6774W        W 7255   0.002  11.627   7.603
 6775W        W 7256   0.788  13.016  10.164
 6776W        W 7257   2.146  12.414   9.343
 6777W        W 7258   2.013  14.493   7.639
 6778W        W 7259   0.159  13.000   7.336
 6779W        W 7260   0.894  13.411  10.462
 6780W        W 7261   0.415  12.578  10.093
 6781W        W 7262   1.406  12.683   9.887
 6782W        W 7263   3.174  11.042  10.149
 6783W        W 7264   3.572  12.652  10.140
 6784W        W 7265   3.560  12.852   7.826
 6785W        W 7266   2.423  13.184   7.925
 6786W        W 7267   2.897  14.484   7.620
 6787W        W 7268   2.074  12.474  10.762
 6788W        W 7269   0.404  13.441  10.802
 6789W        W 7270   3.610  11.363  10.754
 6790W        W 7271   3.328  12.291   9.375
 6791W        W 7272   1.636  14.421  10.852
 6792W        W 7273   1.491  11.050   7.579
 6793W        W 7274   3.030  13.649   7.522
 6794W        W 7275   0.799  11.742  10.408
 6795W        W 7276   1.233  13.736  10.270
 6796W        W 7277   3.359  11.727  10.068
 6797W        W 7278   2.570  14.386   8.036
 6798W        W 7279   2.809  13.005   9.403
 6799W        W 7280   1.059  11.421  10.070
 6800W        W 7281   1.528  12.490  10.827
 6801W        W 7282   1.031  13.669   8.021
 6802W        W 7283   2.786  13.167   8.285
 6803W        W 7284   0.554  11.793  10.009
 6804W        W 7285   1.883  13.855   8.473
 6805W        W 7286   3.633  12.415   8.654
 6806W        W 7287   1.855  11.048  10.373
 6807W        W 7288   2.635  13.753   9.452
 6808W        W 7289   2.938  14.097   9.160
 6809W        W 7290   2.157  13.899   7.588
 6810W        W 7291   0.167  13.791  10.430
 6811W        W 7292   0.910  11.783   9.668
 6812W        W 7293   0.880  11.131   8.778
 6813W        W 7294   2.501  11.973   9.470
 6814W        W 7295   1.299  13.144   7.670
 6815W        W 7296   3.297  13.086   9.169
 6816W        W 7297   0.624  13.844  10.592
 6817W        W 7298   3.011  14.526   8.389
 6818W        W 7299   1.110  11.546   8.834
 6819W        W 7300   0.879  13.039   8.924
 6820W        W 7301   1.192  14.450   9.674
 6821W        W 7302   3.259  14.546  10.706
 6822W        W 7303   2.418  12.734   9.639
 6823W        W 7304   0.267  12.532   7.554
 6824W        W 7305   3.401  14.190   8.251
 6825W        W 7306   3.238  11.514   7.870
 6826W        W 7307   1.377  11.033  10.273
 6827W        W 7308   3.083  13.835   8.731
 6828W        W 7309   3.112  12.391   8.636
 6829W        W 7310   1.229  12.064   8.852
 6830W        W 7311   1.474  12.326  10.176
 6831W        W 7312   2.585  13.479  10.039
 6832W        W 7313   1.235  11.933  10.151
 6833W        W 7314   1.214  14.399   8.767
 6834W        W 7315   0.531  14.358  10.401
 6835W        W 7316   0.643  13.719   7.531
 6836W        W 7317   3.160  13.477   8.341
 6837W        W 7318   0.764  12.269  10.227
 6838W        W 7319   3.537  12.199   7.708
 6839W        W 7320   1.282  13.256   8.179
 6840W        W 7321   2.381  12.638  10.260
 6841W        W 7322   2.272  12.266   9.804
 6842W        W 7323   0.832  12.638   9.833
 6843W        W 7324   3.042  14.526   9.662
 6844W        W 7325   2.833  11.160  10.656
 6845W        W 7326   0.497  11.310  10.243
 6846W        W 7327   0.836  12.333   9.296
 6847W        W 7328   1.205  12.147   7.418
 6848W        W 7329   0.008  13.906   9.963
 6849W        W 7330   1.593  12.615   9.406
 6850W        W 7331   1.416  11.640   7.511
 6851W        W 7332   0.551  12.456   8.292
 6852W        W 7333   0.322  14.308   9.729
 6853W        W 7334   3.117  12.534   7.837
 6854W        W 7335   3.212  11.450  10.523
 6855W        W 7336   2.648  13.659   8.486
 6856W        W 7337   0.246  12.583  10.663
 6857W        W 7338   3.212  11.047   7.959
 6858W        W 7339   2.732  13.522   7.970
 6859W        W 7340   1.634  12.580   8.055
 6860W        W 7341   2.821  11.384   7.578
 6861W        W 7342   2.886  11.991   9.764
 6862W        W 7343   0.595  12.584   8.971
 6863W        W 7344   0.889  13.523   8.620
 6864W        W 7345   2.652  12.143   8.585
 6865W        W 7346   1.675  11.522   9.281
 6866W        W 7347   3.637  13.433   9.792
 6867W        W 7348   3.555  11.420   9.353
 6868W        W 7349   0.094  14.250   8.729
 6869W        W 7350   0.603  13.437   8.265
 6870W        W 7351   0.518  11.054  10.818
 6871W        W 7352   1.637  13.907  10.920
 6872W        W 7353   3.392  12.875   8.710
 6873W        W 7354   2.746  13.052   7.590
 6874W        W 7355   2.041  14.573   9.802
 6875W        W 7356   2.898  13.295  10.839
 6876W        W 7357   1.713  11.005   8.119
 6877W        W 7358   2.426  11.874   8.978
 6878W        W 7359   0.112  13.461   9.310
 6879W        W 7360   1.365  11.423   7.951
 6880W        W 7361   1.169  12.907  10.800
 6881W        W 7362   2.163  11.888   8.514
 6882W        W 7363   2.368  13.298   9.636
 6883W        W 7364   0.522  13.903  10.071
 6884W        W 7365   1.113  13.886  10.794
 6885W        W 7366   0.964  11.683   7.808
 6886W        W 7367   2.439  13.933  10.370
 6887W        W 7368   1.124  12.525   8.969
 6888W        W 7369   0.779  14.223   9.834
 6889W        W 7370   3.524  14.340   7.435
 6890W        W 7371   0.387  13.012  10.431
 6891W        W 7372   2.382  13.274   9.119
 6892W        W 7373   0.818  12.923   8.361
 6893W        W 7374   1.189  13.930   9.756
 6894W        W 7375   1.567  11.349   8.797
 6895W        W 7376   0.178  13.333   7.727
 6896W        W 7377   1.697  12.284   7.597
 6897W        W 7378   0.343  12.833   8.616
 6898W        W 7379   1.633  11.475  10.080
 6899W        W 7380   3.305  11.184   7.507
 6900W        W 7381   3.398  12.930  10.606
 6901W        W 7382   2.052  14.187  10.758
 6902W        W 7383   3.610  13.281  10.280
 6903W        W 7384   3.018  14.079  10.891
 6904W        W 7385   0.757  14.535   9.369
 6905W        W 7386   3.616  13.157   8.243
 6906W        W 7387   2.146  12.424   8.756
 6907W        W 7388   1.913  11.036   8.646
 6908W        W 7389   0.972  14.020   8.483
 6909W        W 7390   1.471  11.761   9.708
 6910W        W 7391   1.171  11.130   9.177
 6911W        W 7392   0.234  13.952   7.725
 6912W        W 7393   2.050  13.316   8.443
 6913W        W 7394   0.925  14.111  10.322
 6914W        W 7395   0.402  12.934   8.018
 6915W        W 7396   0.287  11.477   9.017
 6916W        W 7397   1.835  13.442   9.074
 6917W        W 7398   0.087  11.296   8.094
 6918W        W 7399   2.751  12.502  10.021
 6919W        W 7400   2.628  11.888   7.593
 6920W        W 7401   3.145  13.560   9.241
 6921W        W 7402   1.806  14.044   9.072
 6922W        W 7403   1.218  14.148   7.983
 6923W        W 7404   2.500  11.051   7.413
 6924W        W 7405   0.300  14.311   9.154
 6925W        W 7406   2.497  12.069  10.789
 6926W        W 7407   0.480  11.599  10.788
 6927W        W 7408   0.211  12.199   8.121
 6928W        W 7409   0.902  12.188   7.846
 6929W        W 7410   2.665  12.515  10.663
 6930W        W 7411   1.008  12.796   9.372
 6931W        W 7412   2.482  11.082   8.492
 6932W        W 7413   1.613  14.513   8.995
 6933W        W 7414   2.827  13.975   9.932
 6934W        W 7415   2.411  14.124   9.043
 6935W        W 7416   2.430  13.104   8.637
 6936W        W 7417   1.892  11.329   7.708
 6937W        W 7418   3.573  10.957   8.430
 6938W        W 7419   1.261  12.592   7.593
 6939W        W 7420   3.427  11.929   8.583
 6940W        W 7421   2.119  13.099   7.460
 6941W        W 7422   3.055  13.299  10.208
 6942W        W 7423   2.709  14.000   7.675
 6943W        W 7424   1.324  11.675  10.581
 6944W        W 7425   1.144  12.259   9.822
 6945W        W 7426   3.236  13.754  10.099
 6946W        W 7427   2.336  11.704  10.476
 6947W        W 7428   0.180  12.175  10.253
 6948W        W 7429   1.940  12.652   9.979
 6949W        W 7430   0.297  13.410   8.636
 6950W        W 7431   0.444  12.707   9.526
 6951W        W 7432   2.761  12.993   9.876
 6952W        W 7433   2.533  14.373  10.687
 6953W        W 7434   2.706  14.166   8.645
 6954W        W 7435   1.708  13.886   9.968
 6955W        W 7436   1.193  14.241   9.237
 6956W        W 7437   2.998  13.412   9.656
 6957W        W 7438   2.048  13.484  10.793
 6958W        W 7439   0.653  13.437   9.132
 6959W        W 7440   2.999  13.196   8.777
 6960W        W 7441   2.640  14.262   9.528
 6961W        W 7442   0.618  13.991   9.398
 6962W        W 7443   1.639  12.043  10.608
 6963W        W 7444   2.090  14.209   8.119
 6964W        W 7445   1.398  13.464  10.757
 6965W        W 7446   1.524  13.702   8.134
 6966W        W 7447   0.745  12.442   7.393
 6967W        W 7448   0.084  14.528  14.292
 6968W        W 7449   0.460  13.421  13.815
 6969W        W 7450   3.165  13.151  11.585
 6970W        W 7451   3.295  14.236  13.612
 6971W        W 7452   1.213  14.227  11.138
 6972W        W 7453   1.296  12.379  12.121
 6973W        W 7454   0.811  12.227  12.285
 6974W        W 7455   1.802  13.042  11.719
 6975W        W 7456   1.477  14.134  14.074
 6976W        W 7457   0.126  11.695  14.037
 6977W        W 7458   0.888  10.975  13.839
 6978W        W 7459   2.582  11.363  12.726
 6979W        W 7460   2.231  12.234  11.296
 6980W        W 7461   2.801  11.668  14.387
 6981W        W 7462   0.167  11.460  13.512
 6982W        W 7463   0.266  14.079  14.533
 6983W        W 7464   1.788  13.469  11.265
 6984W        W 7465   0.220  12.252  12.958
 6985W        W 7466   1.113  12.143  14.195
 6986W        W 7467   3.572  12.002  12.694
 6987W        W 7468   3.336  13.045  13.553
 6988W        W 7469   1.644  12.378  12.580
 6989W        W 7470   2.190  13.717  12.949
 6990W        W 7471   0.690  13.151  13.181
 6991W        W 7472   0.049  12.679  12.752
 6992W        W 7473   1.085  12.651  13.944
 6993W        W 7474   3.356  12.434  14.198
 6994W        W 7475   0.972  13.878  12.643
 6995W        W 7476   2.093  13.567  13.777
 6996W        W 7477   1.313  12.207  13.002
 6997W        W 7478   1.605  12.991  12.645
 6998W        W 7479   2.602  13.764  14.493
 6999W        W 7480   1.681  13.084  14.503
 7000W        W 7481   1.662  12.800  13.981
 7001W        W 7482   0.071  12.191  14.503
 7002W        W 7483   2.903  13.726  14.102
 7003W        W 7484   0.484  11.308  12.100
 7004W        W 7485   1.011  13.566  13.099
 7005W        W 7486   3.474  13.349  12.389
 7006W        W 7487   2.887  11.749  12.956
 7007W        W 7488   3.172  11.702  11.051
 7008W        W 7489   3.637  12.503  13.357
 7009W        W 7490   1.604  14.210  13.110
 7010W        W 7491   3.378  13.676  11.548
 7011W        W 7492   0.507  14.462  11.302
 7012W        W 7493   0.900  14.508  11.978
 7013W        W 7494   0.697  11.262  13.404
 7014W        W 7495   3.320  12.280  13.679
 7015W        W 7496   2.725  12.702  12.138
 7016W        W 7497   2.691  12.390  11.165
 7017W        W 7498   1.899  13.534  13.305
 7018W        W 7499   1.705  11.864  12.504
 7019W        W 7500   2.305  13.951  13.498
 7020W        W 7501   3.176  12.742  11.920
 7021W        W 7502   2.078  11.400  11.936
 7022W        W 7503   0.735  14.094  11.619
 7023W        W 7504   0.106  11.593  12.218
 7024W        W 7505   2.892  12.200  12.692
 7025W        W 7506   0.350  13.817  12.607
 7026W        W 7507   1.691  14.167  11.477
 7027W        W 7508   3.083  12.193  10.941
 7028W        W 7509   0.106  13.951  13.105
 7029W        W 7510   0.897  13.523  13.585
 7030W        W 7511   1.270  12.883  12.204
 7031W        W 7512   1.292  11.288  13.297
 7032W        W 7513   3.521  11.050  12.594
 7033W        W 7514   0.740  12.922  11.062
 7034W        W 7515   0.395  11.955  11.241
 7035W        W 7516   0.457  13.911  12.035
 7036W        W 7517   1.588  13.394  12.283
 7037W        W 7518   2.920  14.253  13.997
 7038W        W 7519   1.846  11.895  11.681
 7039W        W 7520   3.229  14.293  12.453
 7040W        W 7521   2.906  12.146  14.051
 7041W        W 7522   3.619  13.802  12.185
 7042W        W 7523   2.246  13.094  13.669
 7043W        W 7524   0.012  12.645  11.875
 7044W        W 7525   1.123  13.060  13.448
 7045W        W 7526   2.327  12.324  11.826
 7046W        W 7527   2.204  12.814  11.930
 7047W        W 7528   0.547  12.234  13.404
 7048W        W 7529   0.532  12.110  14.326
 7049W        W 7530   0.422  11.027  12.485
 7050W        W 7531   2.190  11.374  13.046
 7051W        W 7532   1.838  11.559  14.209
 7052W        W 7533   2.193  11.708  11.387
 7053W        W 7534   3.376  14.101  14.141
 7054W        W 7535   2.343  11.182  14.180
 7055W        W 7536   3.362  13.483  14.302
 7056W        W 7537   2.792  11.650  13.898
 7057W        W 7538   2.592  11.588  12.168
 7058W        W 7539   2.985  12.722  14.572
 7059W        W 7540   0.725  14.298  12.558
 7060W        W 7541   1.383  12.015  11.544
 7061W        W 7542   0.952  11.299  14.208
 7062W        W 7543   3.004  11.783  11.889
 7063W        W 7544   3.371  12.265  11.834
 7064W        W 7545   1.114  14.482  14.305
 7065W        W 7546   1.040  11.018  11.540
 7066W        W 7547   3.361  11.552  12.575
 7067W        W 7548   3.511  13.801  11.020
 7068W        W 7549   0.418  13.004  12.722
 7069W        W 7550   2.335  11.591  10.952
 7070W        W 7551   3.469  13.923  12.672
 7071W        W 7552   3.508  11.117  13.422
 7072W        W 7553   1.953  12.329  13.976
 7073W        W 7554   2.046  13.668  11.679
 7074W        W 7555   2.446  12.962  14.419
 7075W        W 7556   2.120  10.939  12.728
 7076W        W 7557   0.732  11.842  12.791
 7077W        W 7558   0.286  13.042  13.565
 7078W        W 7559   2.145  14.235  12.271
 7079W        W 7560   3.339  11.832  13.143
 7080W        W 7561   1.976  14.179  13.910
 7081W        W 7562   3.319  13.238  11.115
 7082W        W 7563   1.754  12.721  12.176
 7083W        W 7564   3.606  11.232  13.917
 7084W        W 7565   1.755  13.067  13.511
 7085W        W 7566   1.972  11.953  12.956
 7086W        W 7567   2.824  12.251  11.794
 7087W        W 7568   3.111  11.984  11.436
 7088W        W 7569   2.920  14.024  11.825
 7089W        W 7570   2.754  13.627  12.621
 7090W        W 7571   2.650  12.706  11.599
 7091W        W 7572   2.083  12.916  12.585
 7092W        W 7573   2.964  12.704  12.652
 7093W        W 7574   0.339  11.719  13.076
 7094W        W 7575   3.117  12.771  13.903
 7095W        W 7576   3.468  14.389  13.049
 7096W        W 7577   1.398  13.833  12.451
 7097W        W 7578   2.399  11.696  13.539
 7098W        W 7579   1.606  14.404  13.600
 7099W        W 7580   3.303  11.358  12.066
 7100W        W 7581   3.094  12.677  13.367
 7101W        W 7582   0.077  11.998  13.405
 7102W        W 7583   2.937  11.793  12.423
 7103W        W 7584   3.348  11.944  14.200
 7104W        W 7585   2.233  13.643  12.418
 7105W        W 7586   1.489  14.234  12.031
 7106W        W 7587   0.604  11.414  11.289
 7107W        W 7588   1.708  11.068  13.099
 7108W        W 7589   0.736  14.188  10.947
 7109W        W 7590   1.110  12.654  11.698
 7110W        W 7591   1.764  13.283  14.011
 7111W        W 7592   1.594  11.641  12.001
 7112W        W 7593   2.950  11.238  12.429
 7113W        W 7594   2.670  14.520  12.757
 7114W        W 7595   2.082  14.168  13.097
 7115W        W 7596   1.478  13.205  13.058
 7116W        W 7597   3.248  13.928  13.184
 7117W        W 7598   0.942  11.431  11.953
 7118W        W 7599   1.464  13.728  12.913
 7119W        W 7600   0.947  11.659  10.978
 7120W        W 7601   1.748  12.268  13.372
 7121W        W 7602   2.596  11.134  13.242
 7122W        W 7603   0.016  12.977  13.127
 7123W        W 7604   1.720  12.795  11.285
 7124W        W 7605   0.988  11.110  11.055
 7125W        W 7606   1.726  12.191  12.106
 7126W        W 7607   2.696  11.167  13.805
 7127W        W 7608   1.284  13.179  13.914
 7128W        W 7609   2.088  12.961  14.131
 7129W        W 7610   2.705  12.991  14.024
 7130W        W 7611   1.989  11.131  14.529
 7131W        W 7612   1.211  11.747  12.922
 7132W        W 7613   0.637  11.703  12.320
 7133W        W 7614   0.423  14.415  11.996
 7134W        W 7615   1.755  13.745  14.121
 7135W        W 7616   0.790  13.230  11.480
 7136W        W 7617   2.470  12.615  12.701
 7137W        W 7618   2.750  12.414  13.100
 7138W        W 7619   1.955  13.088  13.034
 7139W        W 7620   2.425  13.462  11.166
 7140W        W 7621   2.097  11.483  12.494
 7141W        W 7622   3.576  11.761  11.762
 7142W        W 7623   0.070  14.350  13.793
 7143W        W 7624   0.487  13.576  13.325
 7144W        W 7625   0.054  14.422  11.557
 7145W        W 7626   1.953  11.692  13.363
 7146W        W 7627   1.316  13.715  11.212
 7147W        W 7628   3.221  14.097  11.398
 7148W        W 7629   2.196  12.750  11.412
 7149W        W 7630   1.039  11.941  11.929
 7150W        W 7631   1.871  11.851  10.981
 7151W        W 7632   2.455  13.416  14.159
 7152W        W 7633   2.808  11.322  11.776
 7153W        W 7634   0.138  11.170  11.224
 7154W        W 7635   1.424  13.489  13.514
 7155W        W 7636   1.223  13.405  12.606
 7156W        W 7637   0.965  13.357  11.004
 7157W        W 7638   0.206  13.598  11.772
 7158W        W 7639   0.710  12.668  14.214
 7159W        W 7640   1.414  11.228  14.400
 7160W        W 7641   2.123  11.370  13.756
 7161W        W 7642   1.318  11.138  12.037
 7162W        W 7643   2.377  11.215  11.542
 7163W        W 7644   0.322  11.147  13.119
 7164W        W 7645   0.370  12.110  12.489
 7165W        W 7646   3.059  11.218  12.895
 7166W        W 7647   0.481  11.716  11.709
 7167W        W 7648   3.052  11.404  13.325
 7168W        W 7649   3.448  12.607  11.010
 7169W        W 7650   0.740  11.365  12.829
 7170W        W 7651   1.854  11.937  13.769
 7171W        W 7652   0.002  11.627  11.247
 7172W        W 7653   0.788  13.016  13.808
 7173W        W 7654   2.013  14.493  11.283
 7174W        W 7655   0.159  13.000  10.980
 7175W        W 7656   0.894  13.411  14.106
 7176W        W 7657   0.415  12.578  13.737
 7177W        W 7658   1.406  12.683  13.531
 7178W        W 7659   3.174  11.042  13.793
 7179W        W 7660   3.572  12.652  13.784
 7180W        W 7661   3.560  12.852  11.470
 7181W        W 7662   2.423  13.184  11.569
 7182W        W 7663   2.897  14.484  11.264
 7183W        W 7664   2.074  12.474  14.406
 7184W        W 7665   0.404  13.441  14.446
 7185W        W 7666   3.610  11.363  14.398
 7186W        W 7667   3.328  12.291  13.019
 7187W        W 7668   1.636  14.421  14.496
 7188W        W 7669   1.491  11.050  11.223
 7189W        W 7670   3.030  13.649  11.166
 7190W        W 7671   0.799  11.742  14.052
 7191W        W 7672   1.233  13.736  13.914
 7192W        W 7673   3.359  11.727  13.712
 7193W        W 7674   2.570  14.386  11.680
 7194W        W 7675   2.809  13.005  13.047
 7195W        W 7676   1.059  11.421  13.714
 7196W        W 7677   1.528  12.490  14.471
 7197W        W 7678   1.031  13.669  11.665
 7198W        W 7679   2.786  13.167  11.929
 7199W        W 7680   0.554  11.793  13.653
 7200W        W 7681   1.883  13.855  12.117
 7201W        W 7682   3.633  12.415  12.298
 7202W        W 7683   1.855  11.048  14.017
 7203W        W 7684   2.635  13.753  13.096
 7204W        W 7685   2.938  14.097  12.804
 7205W        W 7686   2.157  13.899  11.232
 7206W        W 7687   0.167  13.791  14.074
 7207W        W 7688   0.910  11.783  13.312
 7208W        W 7689   0.880  11.131  12.422
 7209W        W 7690   2.501  11.973  13.114
 7210W        W 7691   1.299  13.144  11.314
 7211W        W 7692   3.297  13.086  12.813
 7212W        W 7693   0.624  13.844  14.236
 7213W        W 7694   3.011  14.526  12.033
 7214W        W 7695   1.110  11.546  12.478
 7215W        W 7696   0.879  13.039  12.568
 7216W        W 7697   1.192  14.450  13.318
 7217W        W 7698   3.259  14.546  14.350
 7218W        W 7699   2.418  12.734  13.283
 7219W        W 7700   0.267  12.532  11.198
 7220W        W 7701   3.401  14.190  11.895
 7221W        W 7702   3.238  11.514  11.514
 7222W        W 7703   1.377  11.033  13.917
 7223W        W 7704   3.083  13.835  12.375
 7224W        W 7705   3.112  12.391  12.280
 7225W        W 7706   1.229  12.064  12.496
 7226W        W 7707   1.474  12.326  13.820
 7227W        W 7708   2.585  13.479  13.683
 7228W        W 7709   1.235  11.933  13.795
 7229W        W 7710   1.214  14.399  12.411
 7230W        W 7711   0.531  14.358  14.045
 7231W        W 7712   0.643  13.719  11.175
 7232W        W 7713   3.160  13.477  11.985
 7233W        W 7714   0.764  12.269  13.871
 7234W        W 7715   3.537  12.199  11.352
 7235W        W 7716   1.282  13.256  11.823
 7236W        W 7717   2.381  12.638  13.904
 7237W        W 7718   2.272  12.266  13.448
 7238W        W 7719   0.832  12.638  13.477
 7239W        W 7720   3.042  14.526  13.306
 7240W        W 7721   2.833  11.160  14.300
 7241W        W 7722   0.497  11.310  13.887
 7242W        W 7723   0.836  12.333  12.940
 7243W        W 7724   1.205  12.147  11.062
 7244W        W 7725   0.008  13.906  13.607
 7245W        W 7726   1.593  12.615  13.050
 7246W        W 7727   1.416  11.640  11.155
 7247W        W 7728   0.551  12.456  11.936
 7248W        W 7729   0.322  14.308  13.373
 7249W        W 7730   3.117  12.534  11.481
 7250W        W 7731   3.212  11.450  14.167
 7251W        W 7732   2.648  13.659  12.130
 7252W        W 7733   0.246  12.583  14.307
 7253W        W 7734   3.212  11.047  11.603
 7254W        W 7735   2.732  13.522  11.614
 7255W        W 7736   1.634  12.580  11.699
 7256W        W 7737   2.821  11.384  11.222
 7257W        W 7738   2.886  11.991  13.408
 7258W        W 7739   0.595  12.584  12.615
 7259W        W 7740   0.889  13.523  12.264
 7260W        W 7741   2.652  12.143  12.229
 7261W        W 7742   1.675  11.522  12.925
 7262W        W 7743   3.637  13.433  13.436
 7263W        W 7744   3.555  11.420  12.997
 7264W        W 7745   0.094  14.250  12.373
 7265W        W 7746   0.603  13.437  11.909
 7266W        W 7747   0.518  11.054  14.462
 7267W        W 7748   1.637  13.907  14.564
 7268W        W 7749   3.392  12.875  12.354
 7269W        W 7750   2.746  13.052  11.234
 7270W        W 7751   2.041  14.573  13.446
 7271W        W 7752   2.898  13.295  14.483
 7272W        W 7753   1.713  11.005  11.763
 7273W        W 7754   2.426  11.874  12.622
 7274W        W 7755   0.112  13.461  12.954
 7275W        W 7756   1.365  11.423  11.595
 7276W        W 7757   1.169  12.907  14.444
 7277W        W 7758   2.163  11.888  12.158
 7278W        W 7759   2.368  13.298  13.280
 7279W        W 7760   0.522  13.903  13.715
 7280W        W 7761   1.113  13.886  14.438
 7281W        W 7762   0.964  11.683  11.452
 7282W        W 7763   2.481  11.825  11.777
 7283W        W 7764   2.439  13.933  14.014
 7284W        W 7765   1.124  12.525  12.613
 7285W        W 7766   0.779  14.223  13.478
 7286W        W 7767   3.524  14.340  11.079
 7287W        W 7768   0.387  13.012  14.075
 7288W        W 7769   2.382  13.274  12.763
 7289W        W 7770   0.818  12.923  12.005
 7290W        W 7771   1.189  13.930  13.400
 7291W        W 7772   1.567  11.349  12.441
 7292W        W 7773   0.178  13.333  11.371
 7293W        W 7774   1.697  12.284  11.241
 7294W        W 7775   0.343  12.833  12.260
 7295W        W 7776   1.633  11.475  13.724
 7296W        W 7777   3.305  11.184  11.151
 7297W        W 7778   3.398  12.930  14.250
 7298W        W 7779   2.052  14.187  14.402
 7299W        W 7780   3.610  13.281  13.924
 7300W        W 7781   3.018  14.079  14.535
 7301W        W 7782   0.757  14.535  13.013
 7302W        W 7783   3.616  13.157  11.887
 7303W        W 7784   2.146  12.424  12.400
 7304W        W 7785   1.913  11.036  12.290
 7305W        W 7786   0.972  14.020  12.127
 7306W        W 7787   1.471  11.761  13.352
 7307W        W 7788   1.171  11.130  12.821
 7308W        W 7789   0.234  13.952  11.369
 7309W        W 7790   2.050  13.316  12.087
 7310W        W 7791   0.925  14.111  13.966
 7311W        W 7792   0.402  12.934  11.662
 7312W        W 7793   0.287  11.477  12.661
 7313W        W 7794   1.835  13.442  12.718
 7314W        W 7795   0.087  11.296  11.738
 7315W        W 7796   2.751  12.502  13.665
 7316W        W 7797   2.628  11.888  11.237
 7317W        W 7798   3.145  13.560  12.885
 7318W        W 7799   1.806  14.044  12.716
 7319W        W 7800   1.218  14.148  11.627
 7320W        W 7801   2.500  11.051  11.057
 7321W        W 7802   0.300  14.311  12.798
 7322W        W 7803   2.497  12.069  14.433
 7323W        W 7804   0.480  11.599  14.432
 7324W        W 7805   0.211  12.199  11.765
 7325W        W 7806   0.902  12.188  11.490
 7326W        W 7807   2.665  12.515  14.307
 7327W        W 7808   1.008  12.796  13.016
 7328W        W 7809   2.482  11.082  12.136
 7329W        W 7810   1.613  14.513  12.639
 7330W        W 7811   2.827  13.975  13.576
 7331W        W 7812   2.411  14.124  12.687
 7332W        W 7813   2.430  13.104  12.281
 7333W        W 7814   1.892  11.329  11.352
 7334W        W 7815   3.573  10.957  12.074
 7335W        W 7816   1.261  12.592  11.237
 7336W        W 7817   3.427  11.929  12.227
 7337W        W 7818   2.119  13.099  11.104
 7338W        W 7819   3.055  13.299  13.852
 7339W        W 7820   2.709  14.000  11.319
 7340W        W 7821   1.324  11.675  14.225
 7341W        W 7822   1.144  12.259  13.466
 7342W        W 7823   3.236  13.754  13.743
 7343W        W 7824   2.336  11.704  14.120
 7344W        W 7825   0.180  12.175  13.897
 7345W        W 7826   1.940  12.652  13.623
 7346W        W 7827   0.297  13.410  12.280
 7347W        W 7828   0.444  12.707  13.170
 7348W        W 7829   2.761  12.993  13.520
 7349W        W 7830   2.533  14.373  14.331
 7350W        W 7831   2.429  12.112  13.884
 7351W        W 7832   2.706  14.166  12.289
 7352W        W 7833   1.708  13.886  13.612
 7353W        W 7834   1.193  14.241  12.881
 7354W        W 7835   2.998  13.412  13.300
 7355W        W 7836   2.048  13.484  14.437
 7356W        W 7837   0.653  13.437  12.776
 7357W        W 7838   2.999  13.196  12.421
 7358W        W 7839   2.640  14.262  13.172
 7359W        W 7840   0.618  13.991  13.042
 7360W        W 7841   1.639  12.043  14.252
 7361W        W 7842   2.090  14.209  11.763
 7362W        W 7843   1.398  13.464  14.401
 7363W        W 7844   1.524  13.702  11.778
 7364W        W 7845   0.745  12.442  11.037
 7365W        W 7846   0.084  14.528  17.936
 7366W        W 7847   0.460  13.421  17.459
 7367W        W 7848   3.165  13.151  15.229
 7368W        W 7849   3.295  14.236  17.256
 7369W        W 7850   1.213  14.227  14.782
 7370W        W 7851   1.296  12.379  15.765
 7371W        W 7852   0.811  12.227  15.929
 7372W        W 7853   1.802  13.042  15.363
 7373W        W 7854   1.477  14.134  17.718
 7374W        W 7855   0.126  11.695  17.681
 7375W        W 7856   0.888  10.975  17.483
 7376W        W 7857   2.582  11.363  16.370
 7377W        W 7858   2.231  12.234  14.940
 7378W        W 7859   1.788  13.469  14.909
 7379W        W 7860   0.220  12.252  16.602
 7380W        W 7861   3.572  12.002  16.338
 7381W        W 7862   3.336  13.045  17.197
 7382W        W 7863   1.644  12.378  16.224
 7383W        W 7864   2.190  13.717  16.593
 7384W        W 7865   0.690  13.151  16.825
 7385W        W 7866   0.049  12.679  16.396
 7386W        W 7867   1.085  12.651  17.588
 7387W        W 7868   0.972  13.878  16.287
 7388W        W 7869   2.093  13.567  17.421
 7389W        W 7870   1.313  12.207  16.646
 7390W        W 7871   1.605  12.991  16.289
 7391W        W 7872   1.662  12.800  17.625
 7392W        W 7873   2.903  13.726  17.746
 7393W        W 7874   0.484  11.308  15.744
 7394W        W 7875   1.011  13.566  16.743
 7395W        W 7876   3.474  13.349  16.033
 7396W        W 7877   2.887  11.749  16.600
 7397W        W 7878   3.172  11.702  14.695
 7398W        W 7879   3.637  12.503  17.001
 7399W        W 7880   1.604  14.210  16.754
 7400W        W 7881   3.378  13.676  15.192
 7401W        W 7882   0.507  14.462  14.946
 7402W        W 7883   0.900  14.508  15.622
 7403W        W 7884   0.697  11.262  17.048
 7404W        W 7885   3.320  12.280  17.323
 7405W        W 7886   2.725  12.702  15.782
 7406W        W 7887   2.691  12.390  14.809
 7407W        W 7888   1.899  13.534  16.949
 7408W        W 7889   1.705  11.864  16.148
 7409W        W 7890   2.305  13.951  17.142
 7410W        W 7891   3.176  12.742  15.564
 7411W        W 7892   2.078  11.400  15.580
 7412W        W 7893   0.735  14.094  15.263
 7413W        W 7894   0.106  11.593  15.862
 7414W        W 7895   2.892  12.200  16.336
 7415W        W 7896   0.350  13.817  16.251
 7416W        W 7897   1.691  14.167  15.121
 7417W        W 7898   3.083  12.193  14.585
 7418W        W 7899   0.106  13.951  16.749
 7419W        W 7900   0.897  13.523  17.229
 7420W        W 7901   1.270  12.883  15.848
 7421W        W 7902   1.292  11.288  16.941
 7422W        W 7903   3.521  11.050  16.238
 7423W        W 7904   0.740  12.922  14.706
 7424W        W 7905   0.395  11.955  14.885
 7425W        W 7906   0.457  13.911  15.679
 7426W        W 7907   1.588  13.394  15.927
 7427W        W 7908   2.920  14.253  17.641
 7428W        W 7909   1.846  11.895  15.325
 7429W        W 7910   3.229  14.293  16.097
 7430W        W 7911   3.619  13.802  15.829
 7431W        W 7912   2.246  13.094  17.313
 7432W        W 7913   0.012  12.645  15.519
 7433W        W 7914   1.123  13.060  17.092
 7434W        W 7915   2.327  12.324  15.470
 7435W        W 7916   2.204  12.814  15.574
 7436W        W 7917   0.547  12.234  17.048
 7437W        W 7918   0.422  11.027  16.129
 7438W        W 7919   2.190  11.374  16.690
 7439W        W 7920   2.193  11.708  15.031
 7440W        W 7921   3.376  14.101  17.785
 7441W        W 7922   2.343  11.182  17.824
 7442W        W 7923   2.792  11.650  17.542
 7443W        W 7924   2.592  11.588  15.812
 7444W        W 7925   0.725  14.298  16.202
 7445W        W 7926   1.383  12.015  15.188
 7446W        W 7927   3.004  11.783  15.533
 7447W        W 7928   3.371  12.265  15.478
 7448W        W 7929   1.040  11.018  15.184
 7449W        W 7930   3.361  11.552  16.219
 7450W        W 7931   3.511  13.801  14.664
 7451W        W 7932   0.418  13.004  16.366
 7452W        W 7933   2.335  11.591  14.596
 7453W        W 7934   3.469  13.923  16.316
 7454W        W 7935   3.508  11.117  17.066
 7455W        W 7936   1.953  12.329  17.620
 7456W        W 7937   2.046  13.668  15.323
 7457W        W 7938   2.120  10.939  16.372
 7458W        W 7939   0.732  11.842  16.435
 7459W        W 7940   0.286  13.042  17.209
 7460W        W 7941   2.145  14.235  15.915
 7461W        W 7942   3.339  11.832  16.787
 7462W        W 7943   1.976  14.179  17.554
 7463W        W 7944   3.319  13.238  14.759
 7464W        W 7945   1.754  12.721  15.820
 7465W        W 7946   3.606  11.232  17.561
 7466W        W 7947   1.755  13.067  17.155
 7467W        W 7948   1.972  11.953  16.600
 7468W        W 7949   2.824  12.251  15.438
 7469W        W 7950   3.111  11.984  15.080
 7470W        W 7951   2.920  14.024  15.469
 7471W        W 7952   2.754  13.627  16.265
 7472W        W 7953   2.650  12.706  15.243
 7473W        W 7954   2.083  12.916  16.229
 7474W        W 7955   2.964  12.704  16.296
 7475W        W 7956   0.339  11.719  16.720
 7476W        W 7957   3.117  12.771  17.547
 7477W        W 7958   3.468  14.389  16.693
 7478W        W 7959   1.398  13.833  16.095
 7479W        W 7960   2.405  14.366  17.419
 7480W        W 7961   2.399  11.696  17.183
 7481W        W 7962   1.606  14.404  17.244
 7482W        W 7963   3.303  11.358  15.710
 7483W        W 7964   3.094  12.677  17.011
 7484W        W 7965   0.077  11.998  17.049
 7485W        W 7966   2.937  11.793  16.067
 7486W        W 7967   2.233  13.643  16.062
 7487W        W 7968   1.489  14.234  15.675
 7488W        W 7969   0.604  11.414  14.933
 7489W        W 7970   1.708  11.068  16.743
 7490W        W 7971   0.736  14.188  14.591
 7491W        W 7972   1.110  12.654  15.342
 7492W        W 7973   1.764  13.283  17.655
 7493W        W 7974   1.594  11.641  15.645
 7494W        W 7975   2.950  11.238  16.073
 7495W        W 7976   2.670  14.520  16.401
 7496W        W 7977   2.082  14.168  16.741
 7497W        W 7978   1.478  13.205  16.702
 7498W        W 7979   3.248  13.928  16.828
 7499W        W 7980   0.942  11.431  15.597
 7500W        W 7981   1.464  13.728  16.557
 7501W        W 7982   0.947  11.659  14.622
 7502W        W 7983   1.748  12.268  17.016
 7503W        W 7984   2.596  11.134  16.886
 7504W        W 7985   0.016  12.977  16.771
 7505W        W 7986   1.720  12.795  14.929
 7506W        W 7987   0.988  11.110  14.699
 7507W        W 7988   1.726  12.191  15.750
 7508W        W 7989   2.696  11.167  17.449
 7509W        W 7990   1.284  13.179  17.558
 7510W        W 7991   2.705  12.991  17.668
 7511W        W 7992   1.211  11.747  16.566
 7512W        W 7993   0.637  11.703  15.964
 7513W        W 7994   0.423  14.415  15.640
 7514W        W 7995   1.755  13.745  17.765
 7515W        W 7996   0.790  13.230  15.124
 7516W        W 7997   2.470  12.615  16.345
 7517W        W 7998   2.750  12.414  16.744
 7518W        W 7999   1.955  13.088  16.678
 7519W        W 8000   2.425  13.462  14.810
 7520W        W 8001   2.097  11.483  16.138
 7521W        W 8002   3.576  11.761  15.406
 7522W        W 8003   0.070  14.350  17.437
 7523W        W 8004   0.487  13.576  16.969
 7524W        W 8005   0.054  14.422  15.201
 7525W        W 8006   1.953  11.692  17.007
 7526W        W 8007   1.316  13.715  14.856
 7527W        W 8008   3.221  14.097  15.042
 7528W        W 8009   2.196  12.750  15.056
 7529W        W 8010   1.039  11.941  15.573
 7530W        W 8011   1.871  11.851  14.625
 7531W        W 8012   2.808  11.322  15.420
 7532W        W 8013   0.138  11.170  14.868
 7533W        W 8014   1.424  13.489  17.158
 7534W        W 8015   1.223  13.405  16.250
 7535W        W 8016   0.965  13.357  14.648
 7536W        W 8017   0.206  13.598  15.416
 7537W        W 8018   2.123  11.370  17.400
 7538W        W 8019   1.318  11.138  15.681
 7539W        W 8020   2.377  11.215  15.186
 7540W        W 8021   0.322  11.147  16.763
 7541W        W 8022   0.370  12.110  16.133
 7542W        W 8023   3.059  11.218  16.539
 7543W        W 8024   0.481  11.716  15.353
 7544W        W 8025   3.052  11.404  16.969
 7545W        W 8026   3.448  12.607  14.654
 7546W        W 8027   0.740  11.365  16.473
 7547W        W 8028   1.854  11.937  17.413
 7548W        W 8029   0.002  11.627  14.891
 7549W        W 8030   0.788  13.016  17.452
 7550W        W 8031   2.146  12.414  16.631
 7551W        W 8032   2.013  14.493  14.927
 7552W        W 8033   0.159  13.000  14.624
 7553W        W 8034   0.415  12.578  17.381
 7554W        W 8035   1.406  12.683  17.175
 7555W        W 8036   3.572  12.652  17.428
 7556W        W 8037   3.560  12.852  15.114
 7557W        W 8038   2.423  13.184  15.213
 7558W        W 8039   2.897  14.484  14.908
 7559W        W 8040   3.328  12.291  16.663
 7560W        W 8041   1.491  11.050  14.867
 7561W        W 8042   3.030  13.649  14.810
 7562W        W 8043   1.233  13.736  17.558
 7563W        W 8044   3.359  11.727  17.356
 7564W        W 8045   2.570  14.386  15.324
 7565W        W 8046   2.809  13.005  16.691
 7566W        W 8047   1.059  11.421  17.358
 7567W        W 8048   1.031  13.669  15.309
 7568W        W 8049   2.786  13.167  15.573
 7569W        W 8050   0.554  11.793  17.297
 7570W        W 8051   1.883  13.855  15.761
 7571W        W 8052   3.633  12.415  15.942
 7572W        W 8053   1.855  11.048  17.661
 7573W        W 8054   2.635  13.753  16.740
 7574W        W 8055   2.938  14.097  16.448
 7575W        W 8056   2.157  13.899  14.876
 7576W        W 8057   0.167  13.791  17.718
 7577W        W 8058   0.910  11.783  16.956
 7578W        W 8059   0.880  11.131  16.066
 7579W        W 8060   2.501  11.973  16.758
 7580W        W 8061   1.299  13.144  14.958
 7581W        W 8062   3.297  13.086  16.457
 7582W        W 8063   3.011  14.526  15.677
 7583W        W 8064   1.110  11.546  16.122
 7584W        W 8065   0.879  13.039  16.212
 7585W        W 8066   1.192  14.450  16.962
 7586W        W 8067   2.418  12.734  16.927
 7587W        W 8068   0.267  12.532  14.842
 7588W        W 8069   3.401  14.190  15.539
 7589W        W 8070   3.238  11.514  15.158
 7590W        W 8071   1.377  11.033  17.561
 7591W        W 8072   3.083  13.835  16.019
 7592W        W 8073   3.112  12.391  15.924
 7593W        W 8074   1.229  12.064  16.140
 7594W        W 8075   1.474  12.326  17.464
 7595W        W 8076   2.585  13.479  17.327
 7596W        W 8077   1.235  11.933  17.439
 7597W        W 8078   1.214  14.399  16.055
 7598W        W 8079   0.643  13.719  14.819
 7599W        W 8080   3.160  13.477  15.629
 7600W        W 8081   0.764  12.269  17.515
 7601W        W 8082   3.537  12.199  14.996
 7602W        W 8083   1.282  13.256  15.467
 7603W        W 8084   2.381  12.638  17.548
 7604W        W 8085   2.272  12.266  17.092
 7605W        W 8086   0.832  12.638  17.121
 7606W        W 8087   3.042  14.526  16.950
 7607W        W 8088   0.497  11.310  17.531
 7608W        W 8089   0.836  12.333  16.584
 7609W        W 8090   1.205  12.147  14.706
 7610W        W 8091   0.008  13.906  17.251
 7611W        W 8092   1.593  12.615  16.694
 7612W        W 8093   1.416  11.640  14.799
 7613W        W 8094   0.551  12.456  15.580
 7614W        W 8095   0.322  14.308  17.017
 7615W        W 8096   3.117  12.534  15.125
 7616W        W 8097   2.648  13.659  15.774
 7617W        W 8098   3.212  11.047  15.247
 7618W        W 8099   2.732  13.522  15.258
 7619W        W 8100   1.634  12.580  15.343
 7620W        W 8101   2.821  11.384  14.866
 7621W        W 8102   2.886  11.991  17.052
 7622W        W 8103   0.595  12.584  16.259
 7623W        W 8104   0.889  13.523  15.908
 7624W        W 8105   2.652  12.143  15.873
 7625W        W 8106   1.675  11.522  16.569
 7626W        W 8107   3.637  13.433  17.080
 7627W        W 8108   3.555  11.420  16.641
 7628W        W 8109   0.094  14.250  16.017
 7629W        W 8110   0.603  13.437  15.553
 7630W        W 8111   3.392  12.875  15.998
 7631W        W 8112   2.746  13.052  14.878
 7632W        W 8113   2.041  14.573  17.090
 7633W        W 8114   1.713  11.005  15.407
 7634W        W 8115   2.426  11.874  16.266
 7635W        W 8116   0.112  13.461  16.598
 7636W        W 8117   1.365  11.423  15.239
 7637W        W 8118   2.163  11.888  15.802
 7638W        W 8119   2.368  13.298  16.924
 7639W        W 8120   0.522  13.903  17.359
 7640W        W 8121   0.964  11.683  15.096
 7641W        W 8122   2.481  11.825  15.421
 7642W        W 8123   2.439  13.933  17.658
 7643W        W 8124   1.124  12.525  16.257
 7644W        W 8125   0.779  14.223  17.122
 7645W        W 8126   3.524  14.340  14.723
 7646W        W 8127   2.382  13.274  16.407
 7647W        W 8128   0.818  12.923  15.649
 7648W        W 8129   1.189  13.930  17.044
 7649W        W 8130   1.567  11.349  16.085
 7650W        W 8131   0.178  13.333  15.015
 7651W        W 8132   1.697  12.284  14.885
 7652W        W 8133   0.343  12.833  15.904
 7653W        W 8134   1.633  11.475  17.368
 7654W        W 8135   3.305  11.184  14.795
 7655W        W 8136   3.610  13.281  17.568
 7656W        W 8137   0.757  14.535  16.657
 7657W        W 8138   3.616  13.157  15.531
 7658W        W 8139   2.146  12.424  16.044
 7659W        W 8140   1.913  11.036  15.934
 7660W        W 8141   0.972  14.020  15.771
 7661W        W 8142   1.471  11.761  16.996
 7662W        W 8143   1.171  11.130  16.465
 7663W        W 8144   0.234  13.952  15.013
 7664W        W 8145   2.050  13.316  15.731
 7665W        W 8146   0.925  14.111  17.610
 7666W        W 8147   0.402  12.934  15.306
 7667W        W 8148   0.287  11.477  16.305
 7668W        W 8149   1.835  13.442  16.362
 7669W        W 8150   0.087  11.296  15.382
 7670W        W 8151   2.751  12.502  17.309
 7671W        W 8152   2.628  11.888  14.881
 7672W        W 8153   3.145  13.560  16.529
 7673W        W 8154   1.806  14.044  16.360
 7674W        W 8155   1.218  14.148  15.271
 7675W        W 8156   2.500  11.051  14.701
 7676W        W 8157   0.300  14.311  16.442
 7677W        W 8158   0.211  12.199  15.409
 7678W        W 8159   0.902  12.188  15.134
 7679W        W 8160   1.008  12.796  16.660
 7680W        W 8161   2.482  11.082  15.780
 7681W        W 8162   1.613  14.513  16.283
 7682W        W 8163   2.827  13.975  17.220
 7683W        W 8164   2.411  14.124  16.331
 7684W        W 8165   2.430  13.104  15.925
 7685W        W 8166   1.892  11.329  14.996
 7686W        W 8167   1.261  12.592  14.881
 7687W        W 8168   3.427  11.929  15.871
 7688W        W 8169   2.119  13.099  14.748
 7689W        W 8170   3.055  13.299  17.496
 7690W        W 8171   2.709  14.000  14.963
 7691W        W 8172   1.144  12.259  17.110
 7692W        W 8173   3.236  13.754  17.387
 7693W        W 8174   0.180  12.175  17.541
 7694W        W 8175   1.940  12.652  17.267
 7695W        W 8176   0.297  13.410  15.924
 7696W        W 8177   2.761  12.993  17.164
 7697W        W 8178   2.533  14.373  17.975
 7698W        W 8179   2.429  12.112  17.528
 7699W        W 8180   2.706  14.166  15.933
 7700W        W 8181   1.193  14.241  16.525
 7701W        W 8182   2.998  13.412  16.944
 7702W        W 8183   0.653  13.437  16.420
 7703W        W 8184   2.999  13.196  16.065
 7704W        W 8185   2.640  14.262  16.816
 7705W        W 8186   0.618  13.991  16.686
 7706W        W 8187   2.090  14.209  15.407
 7707W        W 8188   1.524  13.702  15.422
 7708W        W 8189   0.745  12.442  14.681
 7709W        W 8190   0.084  18.172   3.359
 7710W        W 8191   0.460  17.065   2.882
 7711W        W 8192   3.165  16.795   0.652
 7712W        W 8193   1.296  16.023   1.188
 7713W        W 8194   0.811  15.871   1.352
 7714W        W 8195   1.802  16.686   0.786
 7715W        W 8196   0.126  15.339   3.104
 7716W        W 8197   0.888  14.619   2.906
 7717W        W 8198   2.582  15.007   1.793
 7718W        W 8199   2.231  15.878   0.363
 7719W        W 8200   2.801  15.312   3.454
 7720W        W 8201   0.167  15.104   2.579
 7721W        W 8202   0.266  17.723   3.600
 7722W        W 8203   1.788  17.113   0.332
 7723W        W 8204   0.220  15.896   2.025
 7724W        W 8205   1.113  15.787   3.262
 7725W        W 8206   3.572  15.646   1.761
 7726W        W 8207   3.336  16.689   2.620
 7727W        W 8208   1.644  16.022   1.647
 7728W        W 8209   2.190  17.361   2.016
 7729W        W 8210   0.690  16.795   2.248
 7730W        W 8211   0.049  16.323   1.819
 7731W        W 8212   1.085  16.295   3.011
 7732W        W 8213   3.356  16.078   3.265
 7733W        W 8214   0.972  17.522   1.710
 7734W        W 8215   2.093  17.211   2.844
 7735W        W 8216   1.313  15.851   2.069
 7736W        W 8217   1.605  16.635   1.712
 7737W        W 8218   2.602  17.408   3.560
 7738W        W 8219   1.681  16.728   3.570
 7739W        W 8220   1.662  16.444   3.048
 7740W        W 8221   0.071  15.835   3.570
 7741W        W 8222   2.903  17.370   3.169
 7742W        W 8223   0.484  14.952   1.167
 7743W        W 8224   1.011  17.210   2.166
 7744W        W 8225   3.474  16.993   1.456
 7745W        W 8226   2.887  15.393   2.023
 7746W        W 8227   3.172  15.346   0.118
 7747W        W 8228   3.637  16.147   2.424
 7748W        W 8229   3.378  17.320   0.615
 7749W        W 8230   0.697  14.906   2.471
 7750W        W 8231   3.320  15.924   2.746
 7751W        W 8232   2.725  16.346   1.205
 7752W        W 8233   2.691  16.034   0.232
 7753W        W 8234   1.899  17.178   2.372
 7754W        W 8235   1.705  15.508   1.571
 7755W        W 8236   2.305  17.595   2.565
 7756W        W 8237   3.176  16.386   0.987
 7757W        W 8238   2.078  15.044   1.003
 7758W        W 8239   0.735  17.738   0.686
 7759W        W 8240   0.106  15.237   1.285
 7760W        W 8241   2.892  15.844   1.759
 7761W        W 8242   0.350  17.461   1.674
 7762W        W 8243   3.083  15.837   0.008
 7763W        W 8244   0.106  17.595   2.172
 7764W        W 8245   0.897  17.167   2.652
 7765W        W 8246   1.270  16.527   1.271
 7766W        W 8247   1.292  14.932   2.364
 7767W        W 8248   3.521  14.694   1.661
 7768W        W 8249   0.740  16.566   0.129
 7769W        W 8250   0.395  15.599   0.308
 7770W        W 8251   0.457  17.555   1.102
 7771W        W 8252   1.588  17.038   1.350
 7772W        W 8253   1.846  15.539   0.748
 7773W        W 8254   2.906  15.790   3.118
 7774W        W 8255   3.619  17.446   1.252
 7775W        W 8256   2.246  16.738   2.736
 7776W        W 8257   0.012  16.289   0.942
 7777W        W 8258   1.123  16.704   2.515
 7778W        W 8259   2.327  15.968   0.893
 7779W        W 8260   2.204  16.458   0.997
 7780W        W 8261   0.547  15.878   2.471
 7781W        W 8262   0.532  15.754   3.393
 7782W        W 8263   0.422  14.671   1.552
 7783W        W 8264   2.190  15.018   2.113
 7784W        W 8265   1.838  15.203   3.276
 7785W        W 8266   2.193  15.352   0.454
 7786W        W 8267   3.376  17.745   3.208
 7787W        W 8268   2.343  14.826   3.247
 7788W        W 8269   3.362  17.127   3.369
 7789W        W 8270   2.792  15.294   2.965
 7790W        W 8271   2.592  15.232   1.235
 7791W        W 8272   2.985  16.366   3.639
 7792W        W 8273   1.383  15.659   0.611
 7793W        W 8274   0.952  14.943   3.275
 7794W        W 8275   3.004  15.427   0.956
 7795W        W 8276   3.371  15.909   0.901
 7796W        W 8277   1.040  14.662   0.607
 7797W        W 8278   3.361  15.196   1.642
 7798W        W 8279   3.511  17.445   0.087
 7799W        W 8280   0.418  16.648   1.789
 7800W        W 8281   2.335  15.235   0.019
 7801W        W 8282   3.469  17.567   1.739
 7802W        W 8283   3.508  14.761   2.489
 7803W        W 8284   1.953  15.973   3.043
 7804W        W 8285   2.046  17.312   0.746
 7805W        W 8286   2.446  16.606   3.486
 7806W        W 8287   2.120  14.583   1.795
 7807W        W 8288   0.732  15.486   1.858
 7808W        W 8289   0.286  16.686   2.632
 7809W        W 8290   3.339  15.476   2.210
 7810W        W 8291   3.319  16.882   0.182
 7811W        W 8292   1.754  16.365   1.243
 7812W        W 8293   3.606  14.876   2.984
 7813W        W 8294   1.755  16.711   2.578
 7814W        W 8295   1.972  15.597   2.023
 7815W        W 8296   2.824  15.895   0.861
 7816W        W 8297   3.111  15.628   0.503
 7817W        W 8298   2.920  17.668   0.892
 7818W        W 8299   2.754  17.271   1.688
 7819W        W 8300   2.650  16.350   0.666
 7820W        W 8301   2.083  16.560   1.652
 7821W        W 8302   2.964  16.348   1.719
 7822W        W 8303   0.339  15.363   2.143
 7823W        W 8304   3.117  16.415   2.970
 7824W        W 8305   1.398  17.477   1.518
 7825W        W 8306   2.399  15.340   2.606
 7826W        W 8307   3.094  16.321   2.434
 7827W        W 8308   0.077  15.642   2.472
 7828W        W 8309   2.937  15.437   1.490
 7829W        W 8310   3.348  15.588   3.267
 7830W        W 8311   2.233  17.287   1.485
 7831W        W 8312   0.604  15.058   0.356
 7832W        W 8313   1.708  14.712   2.166
 7833W        W 8314   0.736  17.832   0.014
 7834W        W 8315   1.110  16.298   0.765
 7835W        W 8316   1.764  16.927   3.078
 7836W        W 8317   1.594  15.285   1.068
 7837W        W 8318   2.950  14.882   1.496
 7838W        W 8319   1.478  16.849   2.125
 7839W        W 8320   3.248  17.572   2.251
 7840W        W 8321   0.942  15.075   1.020
 7841W        W 8322   1.464  17.372   1.980
 7842W        W 8323   0.947  15.303   0.045
 7843W        W 8324   1.748  15.912   2.439
 7844W        W 8325   2.596  14.778   2.309
 7845W        W 8326   0.016  16.621   2.194
 7846W        W 8327   1.720  16.439   0.352
 7847W        W 8328   0.988  14.754   0.122
 7848W        W 8329   1.726  15.835   1.173
 7849W        W 8330   2.696  14.811   2.872
 7850W        W 8331   1.284  16.823   2.981
 7851W        W 8332   2.088  16.605   3.198
 7852W        W 8333   2.705  16.635   3.091
 7853W        W 8334   1.989  14.775   3.596
 7854W        W 8335   1.211  15.391   1.989
 7855W        W 8336   0.637  15.347   1.387
 7856W        W 8337   1.755  17.389   3.188
 7857W        W 8338   0.790  16.874   0.547
 7858W        W 8339   2.470  16.259   1.768
 7859W        W 8340   2.750  16.058   2.167
 7860W        W 8341   1.955  16.732   2.101
 7861W        W 8342   2.425  17.106   0.233
 7862W        W 8343   2.097  15.127   1.561
 7863W        W 8344   3.576  15.405   0.829
 7864W        W 8345   0.070  17.994   2.860
 7865W        W 8346   0.487  17.220   2.392
 7866W        W 8347   1.953  15.336   2.430
 7867W        W 8348   1.316  17.359   0.279
 7868W        W 8349   2.196  16.394   0.479
 7869W        W 8350   1.039  15.585   0.996
 7870W        W 8351   1.871  15.495   0.048
 7871W        W 8352   2.455  17.060   3.226
 7872W        W 8353   2.808  14.966   0.843
 7873W        W 8354   0.138  14.814   0.291
 7874W        W 8355   1.424  17.133   2.581
 7875W        W 8356   1.223  17.049   1.673
 7876W        W 8357   0.965  17.001   0.071
 7877W        W 8358   0.206  17.242   0.839
 7878W        W 8359   0.710  16.312   3.281
 7879W        W 8360   1.414  14.872   3.467
 7880W        W 8361   2.123  15.014   2.823
 7881W        W 8362   1.318  14.782   1.104
 7882W        W 8363   2.377  14.859   0.609
 7883W        W 8364   0.322  14.791   2.186
 7884W        W 8365   0.370  15.754   1.556
 7885W        W 8366   3.059  14.862   1.962
 7886W        W 8367   0.481  15.360   0.776
 7887W        W 8368   3.052  15.048   2.392
 7888W        W 8369   3.448  16.251   0.077
 7889W        W 8370   0.740  15.009   1.896
 7890W        W 8371   1.854  15.581   2.836
 7891W        W 8372   0.002  15.271   0.314
 7892W        W 8373   0.788  16.660   2.875
 7893W        W 8374   2.146  16.058   2.054
 7894W        W 8375   0.159  16.644   0.047
 7895W        W 8376   0.894  17.055   3.173
 7896W        W 8377   0.415  16.222   2.804
 7897W        W 8378   1.406  16.327   2.598
 7898W        W 8379   3.174  14.686   2.860
 7899W        W 8380   3.572  16.296   2.851
 7900W        W 8381   3.560  16.496   0.537
 7901W        W 8382   2.423  16.828   0.636
 7902W        W 8383   2.074  16.118   3.473
 7903W        W 8384   0.404  17.085   3.513
 7904W        W 8385   3.610  15.007   3.465
 7905W        W 8386   3.328  15.935   2.086
 7906W        W 8387   1.491  14.694   0.290
 7907W        W 8388   3.030  17.293   0.233
 7908W        W 8389   0.799  15.386   3.119
 7909W        W 8390   1.233  17.380   2.981
 7910W        W 8391   3.359  15.371   2.779
 7911W        W 8392   2.809  16.649   2.114
 7912W        W 8393   1.059  15.065   2.781
 7913W        W 8394   1.528  16.134   3.538
 7914W        W 8395   1.031  17.313   0.732
 7915W        W 8396   2.786  16.811   0.996
 7916W        W 8397   0.554  15.437   2.720
 7917W        W 8398   1.883  17.499   1.184
 7918W        W 8399   3.633  16.059   1.365
 7919W        W 8400   1.855  14.692   3.084
 7920W        W 8401   2.635  17.397   2.163
 7921W        W 8402   2.938  17.741   1.871
 7922W        W 8403   0.167  17.435   3.141
 7923W        W 8404   0.910  15.427   2.379
 7924W        W 8405   0.880  14.775   1.489
 7925W        W 8406   2.501  15.617   2.181
 7926W        W 8407   1.299  16.788   0.381
 7927W        W 8408   3.297  16.730   1.880
 7928W        W 8409   0.624  17.488   3.303
 7929W        W 8410   1.110  15.190   1.545
 7930W        W 8411   0.879  16.683   1.635
 7931W        W 8412   2.418  16.378   2.350
 7932W        W 8413   3.238  15.158   0.581
 7933W        W 8414   1.377  14.677   2.984
 7934W        W 8415   3.083  17.479   1.442
 7935W        W 8416   3.112  16.035   1.347
 7936W        W 8417   1.229  15.708   1.563
 7937W        W 8418   1.474  15.970   2.887
 7938W        W 8419   2.585  17.123   2.750
 7939W        W 8420   1.235  15.577   2.862
 7940W        W 8421   0.643  17.363   0.242
 7941W        W 8422   3.160  17.121   1.052
 7942W        W 8423   0.764  15.913   2.938
 7943W        W 8424   3.537  15.843   0.419
 7944W        W 8425   1.282  16.900   0.890
 7945W        W 8426   2.381  16.282   2.971
 7946W        W 8427   2.272  15.910   2.515
 7947W        W 8428   0.832  16.282   2.544
 7948W        W 8429   2.833  14.804   3.367
 7949W        W 8430   0.497  14.954   2.954
 7950W        W 8431   0.836  15.977   2.007
 7951W        W 8432   1.205  15.791   0.129
 7952W        W 8433   0.008  17.550   2.674
 7953W        W 8434   1.593  16.259   2.117
 7954W        W 8435   1.416  15.284   0.222
 7955W        W 8436   0.551  16.100   1.003
 7956W        W 8437   3.117  16.178   0.548
 7957W        W 8438   3.212  15.094   3.234
 7958W        W 8439   2.648  17.303   1.197
 7959W        W 8440   0.246  16.227   3.374
 7960W        W 8441   3.212  14.691   0.670
 7961W        W 8442   2.732  17.166   0.681
 7962W        W 8443   1.634  16.224   0.766
 7963W        W 8444   2.821  15.028   0.289
 7964W        W 8445   2.886  15.635   2.475
 7965W        W 8446   0.595  16.228   1.682
 7966W        W 8447   0.889  17.167   1.331
 7967W        W 8448   2.652  15.787   1.296
 7968W        W 8449   1.675  15.166   1.992
 7969W        W 8450   3.637  17.077   2.503
 7970W        W 8451   3.555  15.064   2.064
 7971W        W 8452   0.603  17.081   0.976
 7972W        W 8453   0.518  14.698   3.529
 7973W        W 8454   1.637  17.551   3.631
 7974W        W 8455   3.392  16.519   1.421
 7975W        W 8456   2.746  16.696   0.301
 7976W        W 8457   2.898  16.939   3.550
 7977W        W 8458   1.713  14.649   0.830
 7978W        W 8459   2.426  15.518   1.689
 7979W        W 8460   0.112  17.105   2.021
 7980W        W 8461   1.365  15.067   0.662
 7981W        W 8462   1.169  16.551   3.511
 7982W        W 8463   2.163  15.532   1.225
 7983W        W 8464   2.368  16.942   2.347
 7984W        W 8465   0.522  17.547   2.782
 7985W        W 8466   1.113  17.530   3.505
 7986W        W 8467   0.964  15.327   0.519
 7987W        W 8468   2.481  15.469   0.844
 7988W        W 8469   2.439  17.577   3.081
 7989W        W 8470   1.124  16.169   1.680
 7990W        W 8471   0.387  16.656   3.142
 7991W        W 8472   2.382  16.918   1.830
 7992W        W 8473   0.818  16.567   1.072
 7993W        W 8474   1.189  17.574   2.467
 7994W        W 8475   1.567  14.993   1.508
 7995W        W 8476   0.178  16.977   0.438
 7996W        W 8477   1.697  15.928   0.308
 7997W        W 8478   0.343  16.477   1.327
 7998W        W 8479   1.633  15.119   2.791
 7999W        W 8480   3.305  14.828   0.218
 8000W        W 8481   3.398  16.574   3.317
 8001W        W 8482   3.610  16.925   2.991
 8002W        W 8483   3.018  17.723   3.602
 8003W        W 8484   3.616  16.801   0.954
 8004W        W 8485   2.146  16.068   1.467
 8005W        W 8486   1.913  14.680   1.357
 8006W        W 8487   0.972  17.664   1.194
 8007W        W 8488   1.471  15.405   2.419
 8008W        W 8489   1.171  14.774   1.888
 8009W        W 8490   0.234  17.596   0.436
 8010W        W 8491   2.050  16.960   1.154
 8011W        W 8492   0.402  16.578   0.729
 8012W        W 8493   0.287  15.121   1.728
 8013W        W 8494   1.835  17.086   1.785
 8014W        W 8495   0.087  14.940   0.805
 8015W        W 8496   2.751  16.146   2.732
 8016W        W 8497   2.628  15.532   0.304
 8017W        W 8498   3.145  17.204   1.952
 8018W        W 8499   1.806  17.688   1.783
 8019W        W 8500   2.497  15.713   3.500
 8020W        W 8501   0.480  15.243   3.499
 8021W        W 8502   0.211  15.843   0.832
 8022W        W 8503   0.902  15.832   0.557
 8023W        W 8504   2.665  16.159   3.374
 8024W        W 8505   1.008  16.440   2.083
 8025W        W 8506   2.482  14.726   1.203
 8026W        W 8507   2.827  17.619   2.643
 8027W        W 8508   2.430  16.748   1.348
 8028W        W 8509   1.892  14.973   0.419
 8029W        W 8510   3.573  14.601   1.141
 8030W        W 8511   1.261  16.236   0.304
 8031W        W 8512   3.427  15.573   1.294
 8032W        W 8513   2.119  16.743   0.171
 8033W        W 8514   3.055  16.943   2.919
 8034W        W 8515   2.709  17.644   0.386
 8035W        W 8516   1.324  15.319   3.292
 8036W        W 8517   1.144  15.903   2.533
 8037W        W 8518   3.236  17.398   2.810
 8038W        W 8519   2.336  15.348   3.187
 8039W        W 8520   0.180  15.819   2.964
 8040W        W 8521   1.940  16.296   2.690
 8041W        W 8522   0.297  17.054   1.347
 8042W        W 8523   0.444  16.351   2.237
 8043W        W 8524   2.761  16.637   2.587
 8044W        W 8525   2.429  15.756   2.951
 8045W        W 8526   1.708  17.530   2.679
 8046W        W 8527   2.998  17.056   2.367
 8047W        W 8528   2.048  17.128   3.504
 8048W        W 8529   0.653  17.081   1.843
 8049W        W 8530   2.999  16.840   1.488
 8050W        W 8531   0.618  17.635   2.109
 8051W        W 8532   1.639  15.687   3.319
 8052W        W 8533   1.398  17.108   3.468
 8053W        W 8534   1.524  17.346   0.845
 8054W        W 8535   0.745  16.086   0.104
 8055W        W 8536   0.084  18.172   7.003
 8056W        W 8537   0.460  17.065   6.526
 8057W        W 8538   3.165  16.795   4.296
 8058W        W 8539   1.296  16.023   4.832
 8059W        W 8540   0.811  15.871   4.996
 8060W        W 8541   1.802  16.686   4.430
 8061W        W 8542   0.126  15.339   6.748
 8062W        W 8543   0.888  14.619   6.550
 8063W        W 8544   2.582  15.007   5.437
 8064W        W 8545   2.231  15.878   4.007
 8065W        W 8546   2.801  15.312   7.098
 8066W        W 8547   0.167  15.104   6.223
 8067W        W 8548   0.266  17.723   7.244
 8068W        W 8549   1.788  17.113   3.976
 8069W        W 8550   0.220  15.896   5.669
 8070W        W 8551   1.113  15.787   6.906
 8071W        W 8552   3.572  15.646   5.405
 8072W        W 8553   3.336  16.689   6.264
 8073W        W 8554   1.644  16.022   5.291
 8074W        W 8555   2.190  17.361   5.660
 8075W        W 8556   0.690  16.795   5.892
 8076W        W 8557   0.049  16.323   5.463
 8077W        W 8558   1.085  16.295   6.655
 8078W        W 8559   3.356  16.078   6.909
 8079W        W 8560   0.972  17.522   5.354
 8080W        W 8561   2.093  17.211   6.488
 8081W        W 8562   1.313  15.851   5.713
 8082W        W 8563   1.605  16.635   5.356
 8083W        W 8564   2.602  17.408   7.204
 8084W        W 8565   1.681  16.728   7.214
 8085W        W 8566   1.662  16.444   6.692
 8086W        W 8567   0.071  15.835   7.214
 8087W        W 8568   2.903  17.370   6.813
 8088W        W 8569   0.484  14.952   4.811
 8089W        W 8570   1.011  17.210   5.810
 8090W        W 8571   3.474  16.993   5.100
 8091W        W 8572   2.887  15.393   5.667
 8092W        W 8573   3.172  15.346   3.762
 8093W        W 8574   3.378  17.320   4.259
 8094W        W 8575   0.697  14.906   6.115
 8095W        W 8576   3.320  15.924   6.390
 8096W        W 8577   2.725  16.346   4.849
 8097W        W 8578   2.691  16.034   3.876
 8098W        W 8579   1.899  17.178   6.016
 8099W        W 8580   1.705  15.508   5.215
 8100W        W 8581   2.305  17.595   6.209
 8101W        W 8582   3.176  16.386   4.631
 8102W        W 8583   2.078  15.044   4.647
 8103W        W 8584   0.735  17.738   4.330
 8104W        W 8585   0.106  15.237   4.929
 8105W        W 8586   2.892  15.844   5.403
 8106W        W 8587   0.350  17.461   5.318
 8107W        W 8588   3.083  15.837   3.652
 8108W        W 8589   0.106  17.595   5.816
 8109W        W 8590   0.897  17.167   6.296
 8110W        W 8591   1.270  16.527   4.915
 8111W        W 8592   1.292  14.932   6.008
 8112W        W 8593   3.521  14.694   5.305
 8113W        W 8594   0.740  16.566   3.773
 8114W        W 8595   0.395  15.599   3.952
 8115W        W 8596   0.457  17.555   4.746
 8116W        W 8597   1.588  17.038   4.994
 8117W        W 8598   1.846  15.539   4.392
 8118W        W 8599   2.906  15.790   6.762
 8119W        W 8600   3.619  17.446   4.896
 8120W        W 8601   2.246  16.738   6.380
 8121W        W 8602   0.012  16.289   4.586
 8122W        W 8603   1.123  16.704   6.159
 8123W        W 8604   2.327  15.968   4.537
 8124W        W 8605   2.204  16.458   4.641
 8125W        W 8606   0.547  15.878   6.115
 8126W        W 8607   0.532  15.754   7.037
 8127W        W 8608   0.422  14.671   5.196
 8128W        W 8609   1.838  15.203   6.920
 8129W        W 8610   2.193  15.352   4.098
 8130W        W 8611   3.376  17.745   6.852
 8131W        W 8612   2.343  14.826   6.891
 8132W        W 8613   3.362  17.127   7.013
 8133W        W 8614   2.792  15.294   6.609
 8134W        W 8615   2.592  15.232   4.879
 8135W        W 8616   2.985  16.366   7.283
 8136W        W 8617   1.383  15.659   4.255
 8137W        W 8618   0.952  14.943   6.919
 8138W        W 8619   3.004  15.427   4.600
 8139W        W 8620   3.371  15.909   4.545
 8140W        W 8621   1.040  14.662   4.251
 8141W        W 8622   3.361  15.196   5.286
 8142W        W 8623   3.511  17.445   3.731
 8143W        W 8624   0.418  16.648   5.433
 8144W        W 8625   2.335  15.235   3.663
 8145W        W 8626   3.469  17.567   5.383
 8146W        W 8627   3.508  14.761   6.133
 8147W        W 8628   1.953  15.973   6.687
 8148W        W 8629   2.046  17.312   4.390
 8149W        W 8630   2.446  16.606   7.130
 8150W        W 8631   2.120  14.583   5.439
 8151W        W 8632   0.732  15.486   5.502
 8152W        W 8633   0.286  16.686   6.276
 8153W        W 8634   3.339  15.476   5.854
 8154W        W 8635   3.319  16.882   3.826
 8155W        W 8636   1.754  16.365   4.887
 8156W        W 8637   3.606  14.876   6.628
 8157W        W 8638   1.755  16.711   6.222
 8158W        W 8639   1.972  15.597   5.667
 8159W        W 8640   2.824  15.895   4.505
 8160W        W 8641   3.111  15.628   4.147
 8161W        W 8642   2.920  17.668   4.536
 8162W        W 8643   2.754  17.271   5.332
 8163W        W 8644   2.650  16.350   4.310
 8164W        W 8645   2.083  16.560   5.296
 8165W        W 8646   2.964  16.348   5.363
 8166W        W 8647   0.339  15.363   5.787
 8167W        W 8648   1.398  17.477   5.162
 8168W        W 8649   2.399  15.340   6.250
 8169W        W 8650   3.303  15.002   4.777
 8170W        W 8651   3.094  16.321   6.078
 8171W        W 8652   0.077  15.642   6.116
 8172W        W 8653   2.937  15.437   5.134
 8173W        W 8654   3.348  15.588   6.911
 8174W        W 8655   2.233  17.287   5.129
 8175W        W 8656   0.604  15.058   4.000
 8176W        W 8657   1.708  14.712   5.810
 8177W        W 8658   1.110  16.298   4.409
 8178W        W 8659   1.764  16.927   6.722
 8179W        W 8660   1.594  15.285   4.712
 8180W        W 8661   2.950  14.882   5.140
 8181W        W 8662   1.478  16.849   5.769
 8182W        W 8663   3.248  17.572   5.895
 8183W        W 8664   0.942  15.075   4.664
 8184W        W 8665   1.464  17.372   5.624
 8185W        W 8666   0.947  15.303   3.689
 8186W        W 8667   1.748  15.912   6.083
 8187W        W 8668   2.596  14.778   5.953
 8188W        W 8669   0.016  16.621   5.838
 8189W        W 8670   1.720  16.439   3.996
 8190W        W 8671   0.988  14.754   3.766
 8191W        W 8672   1.726  15.835   4.817
 8192W        W 8673   2.696  14.811   6.516
 8193W        W 8674   1.284  16.823   6.625
 8194W        W 8675   2.088  16.605   6.842
 8195W        W 8676   2.705  16.635   6.735
 8196W        W 8677   1.989  14.775   7.240
 8197W        W 8678   1.211  15.391   5.633
 8198W        W 8679   0.637  15.347   5.031
 8199W        W 8680   1.755  17.389   6.832
 8200W        W 8681   0.790  16.874   4.191
 8201W        W 8682   2.470  16.259   5.412
 8202W        W 8683   2.750  16.058   5.811
 8203W        W 8684   1.955  16.732   5.745
 8204W        W 8685   2.425  17.106   3.877
 8205W        W 8686   2.097  15.127   5.205
 8206W        W 8687   3.576  15.405   4.473
 8207W        W 8688   0.070  17.994   6.504
 8208W        W 8689   0.487  17.220   6.036
 8209W        W 8690   1.953  15.336   6.074
 8210W        W 8691   1.316  17.359   3.923
 8211W        W 8692   1.039  15.585   4.640
 8212W        W 8693   1.871  15.495   3.692
 8213W        W 8694   2.455  17.060   6.870
 8214W        W 8695   2.808  14.966   4.487
 8215W        W 8696   0.138  14.814   3.935
 8216W        W 8697   1.424  17.133   6.225
 8217W        W 8698   1.223  17.049   5.317
 8218W        W 8699   0.965  17.001   3.715
 8219W        W 8700   0.206  17.242   4.483
 8220W        W 8701   0.710  16.312   6.925
 8221W        W 8702   1.414  14.872   7.111
 8222W        W 8703   2.123  15.014   6.467
 8223W        W 8704   1.318  14.782   4.748
 8224W        W 8705   2.377  14.859   4.253
 8225W        W 8706   0.322  14.791   5.830
 8226W        W 8707   0.370  15.754   5.200
 8227W        W 8708   3.059  14.862   5.606
 8228W        W 8709   3.052  15.048   6.036
 8229W        W 8710   3.448  16.251   3.721
 8230W        W 8711   0.740  15.009   5.540
 8231W        W 8712   1.854  15.581   6.480
 8232W        W 8713   0.002  15.271   3.958
 8233W        W 8714   0.788  16.660   6.519
 8234W        W 8715   2.146  16.058   5.698
 8235W        W 8716   0.159  16.644   3.691
 8236W        W 8717   0.894  17.055   6.817
 8237W        W 8718   0.415  16.222   6.448
 8238W        W 8719   1.406  16.327   6.242
 8239W        W 8720   3.174  14.686   6.504
 8240W        W 8721   3.572  16.296   6.495
 8241W        W 8722   3.560  16.496   4.181
 8242W        W 8723   2.423  16.828   4.280
 8243W        W 8724   2.074  16.118   7.117
 8244W        W 8725   0.404  17.085   7.157
 8245W        W 8726   3.610  15.007   7.109
 8246W        W 8727   3.328  15.935   5.730
 8247W        W 8728   1.491  14.694   3.934
 8248W        W 8729   3.030  17.293   3.877
 8249W        W 8730   0.799  15.386   6.763
 8250W        W 8731   1.233  17.380   6.625
 8251W        W 8732   3.359  15.371   6.423
 8252W        W 8733   2.809  16.649   5.758
 8253W        W 8734   1.059  15.065   6.425
 8254W        W 8735   1.528  16.134   7.182
 8255W        W 8736   1.031  17.313   4.376
 8256W        W 8737   2.786  16.811   4.640
 8257W        W 8738   0.554  15.437   6.364
 8258W        W 8739   1.883  17.499   4.828
 8259W        W 8740   3.633  16.059   5.009
 8260W        W 8741   1.855  14.692   6.728
 8261W        W 8742   2.635  17.397   5.807
 8262W        W 8743   2.938  17.741   5.515
 8263W        W 8744   2.157  17.543   3.943
 8264W        W 8745   0.167  17.435   6.785
 8265W        W 8746   0.910  15.427   6.023
 8266W        W 8747   0.880  14.775   5.133
 8267W        W 8748   2.501  15.617   5.825
 8268W        W 8749   1.299  16.788   4.025
 8269W        W 8750   3.297  16.730   5.524
 8270W        W 8751   0.624  17.488   6.947
 8271W        W 8752   1.110  15.190   5.189
 8272W        W 8753   0.879  16.683   5.279
 8273W        W 8754   2.418  16.378   5.994
 8274W        W 8755   0.267  16.176   3.909
 8275W        W 8756   3.238  15.158   4.225
 8276W        W 8757   1.377  14.677   6.628
 8277W        W 8758   3.083  17.479   5.086
 8278W        W 8759   3.112  16.035   4.991
 8279W        W 8760   1.229  15.708   5.207
 8280W        W 8761   1.474  15.970   6.531
 8281W        W 8762   2.585  17.123   6.394
 8282W        W 8763   1.235  15.577   6.506
 8283W        W 8764   0.643  17.363   3.886
 8284W        W 8765   3.160  17.121   4.696
 8285W        W 8766   0.764  15.913   6.582
 8286W        W 8767   3.537  15.843   4.063
 8287W        W 8768   1.282  16.900   4.534
 8288W        W 8769   2.381  16.282   6.615
 8289W        W 8770   2.272  15.910   6.159
 8290W        W 8771   0.832  16.282   6.188
 8291W        W 8772   2.833  14.804   7.011
 8292W        W 8773   0.497  14.954   6.598
 8293W        W 8774   0.836  15.977   5.651
 8294W        W 8775   1.205  15.791   3.773
 8295W        W 8776   0.008  17.550   6.318
 8296W        W 8777   1.593  16.259   5.761
 8297W        W 8778   1.416  15.284   3.866
 8298W        W 8779   0.551  16.100   4.647
 8299W        W 8780   3.117  16.178   4.192
 8300W        W 8781   3.212  15.094   6.878
 8301W        W 8782   2.648  17.303   4.841
 8302W        W 8783   0.246  16.227   7.018
 8303W        W 8784   3.212  14.691   4.314
 8304W        W 8785   2.732  17.166   4.325
 8305W        W 8786   1.634  16.224   4.410
 8306W        W 8787   2.821  15.028   3.933
 8307W        W 8788   2.886  15.635   6.119
 8308W        W 8789   0.595  16.228   5.326
 8309W        W 8790   0.889  17.167   4.975
 8310W        W 8791   2.652  15.787   4.940
 8311W        W 8792   1.675  15.166   5.636
 8312W        W 8793   3.637  17.077   6.147
 8313W        W 8794   3.555  15.064   5.708
 8314W        W 8795   0.603  17.081   4.620
 8315W        W 8796   0.518  14.698   7.173
 8316W        W 8797   1.637  17.551   7.275
 8317W        W 8798   3.392  16.519   5.065
 8318W        W 8799   2.746  16.696   3.945
 8319W        W 8800   2.898  16.939   7.194
 8320W        W 8801   1.713  14.649   4.474
 8321W        W 8802   2.426  15.518   5.333
 8322W        W 8803   0.112  17.105   5.665
 8323W        W 8804   1.365  15.067   4.306
 8324W        W 8805   1.169  16.551   7.155
 8325W        W 8806   2.163  15.532   4.869
 8326W        W 8807   2.368  16.942   5.991
 8327W        W 8808   0.522  17.547   6.426
 8328W        W 8809   1.113  17.530   7.149
 8329W        W 8810   0.964  15.327   4.163
 8330W        W 8811   2.481  15.469   4.488
 8331W        W 8812   2.439  17.577   6.725
 8332W        W 8813   1.124  16.169   5.324
 8333W        W 8814   0.387  16.656   6.786
 8334W        W 8815   2.382  16.918   5.474
 8335W        W 8816   0.818  16.567   4.716
 8336W        W 8817   1.189  17.574   6.111
 8337W        W 8818   1.567  14.993   5.152
 8338W        W 8819   0.178  16.977   4.082
 8339W        W 8820   1.697  15.928   3.952
 8340W        W 8821   0.343  16.477   4.971
 8341W        W 8822   1.633  15.119   6.435
 8342W        W 8823   3.305  14.828   3.862
 8343W        W 8824   3.398  16.574   6.961
 8344W        W 8825   3.610  16.925   6.635
 8345W        W 8826   3.018  17.723   7.246
 8346W        W 8827   3.616  16.801   4.598
 8347W        W 8828   2.146  16.068   5.111
 8348W        W 8829   1.913  14.680   5.001
 8349W        W 8830   0.972  17.664   4.838
 8350W        W 8831   1.471  15.405   6.063
 8351W        W 8832   1.171  14.774   5.532
 8352W        W 8833   0.234  17.596   4.080
 8353W        W 8834   2.050  16.960   4.798
 8354W        W 8835   0.402  16.578   4.373
 8355W        W 8836   0.287  15.121   5.372
 8356W        W 8837   1.835  17.086   5.429
 8357W        W 8838   0.087  14.940   4.449
 8358W        W 8839   2.751  16.146   6.376
 8359W        W 8840   2.628  15.532   3.948
 8360W        W 8841   3.145  17.204   5.596
 8361W        W 8842   1.806  17.688   5.427
 8362W        W 8843   2.500  14.695   3.768
 8363W        W 8844   2.497  15.713   7.144
 8364W        W 8845   0.480  15.243   7.143
 8365W        W 8846   0.211  15.843   4.476
 8366W        W 8847   0.902  15.832   4.201
 8367W        W 8848   2.665  16.159   7.018
 8368W        W 8849   1.008  16.440   5.727
 8369W        W 8850   2.482  14.726   4.847
 8370W        W 8851   2.827  17.619   6.287
 8371W        W 8852   2.430  16.748   4.992
 8372W        W 8853   1.892  14.973   4.063
 8373W        W 8854   3.573  14.601   4.785
 8374W        W 8855   1.261  16.236   3.948
 8375W        W 8856   3.427  15.573   4.938
 8376W        W 8857   2.119  16.743   3.815
 8377W        W 8858   3.055  16.943   6.563
 8378W        W 8859   2.709  17.644   4.030
 8379W        W 8860   1.324  15.319   6.936
 8380W        W 8861   1.144  15.903   6.177
 8381W        W 8862   3.236  17.398   6.454
 8382W        W 8863   2.336  15.348   6.831
 8383W        W 8864   0.180  15.819   6.608
 8384W        W 8865   1.940  16.296   6.334
 8385W        W 8866   0.297  17.054   4.991
 8386W        W 8867   0.444  16.351   5.881
 8387W        W 8868   2.761  16.637   6.231
 8388W        W 8869   2.429  15.756   6.595
 8389W        W 8870   1.708  17.530   6.323
 8390W        W 8871   2.998  17.056   6.011
 8391W        W 8872   2.048  17.128   7.148
 8392W        W 8873   0.653  17.081   5.487
 8393W        W 8874   2.999  16.840   5.132
 8394W        W 8875   0.618  17.635   5.753
 8395W        W 8876   1.639  15.687   6.963
 8396W        W 8877   1.398  17.108   7.112
 8397W        W 8878   1.524  17.346   4.489
 8398W        W 8879   0.745  16.086   3.748
 8399W        W 8880   0.084  18.172  10.648
 8400W        W 8881   0.460  17.065  10.171
 8401W        W 8882   3.165  16.795   7.941
 8402W        W 8883   1.296  16.023   8.477
 8403W        W 8884   0.811  15.871   8.641
 8404W        W 8885   1.802  16.686   8.075
 8405W        W 8886   0.126  15.339  10.393
 8406W        W 8887   0.888  14.619  10.195
 8407W        W 8888   2.582  15.007   9.082
 8408W        W 8889   2.231  15.878   7.652
 8409W        W 8890   2.801  15.312  10.743
 8410W        W 8891   0.167  15.104   9.868
 8411W        W 8892   0.266  17.723  10.889
 8412W        W 8893   1.788  17.113   7.621
 8413W        W 8894   0.220  15.896   9.314
 8414W        W 8895   1.113  15.787  10.551
 8415W        W 8896   3.572  15.646   9.050
 8416W        W 8897   3.336  16.689   9.909
 8417W        W 8898   1.644  16.022   8.936
 8418W        W 8899   2.190  17.361   9.305
 8419W        W 8900   0.690  16.795   9.537
 8420W        W 8901   0.049  16.323   9.108
 8421W        W 8902   1.085  16.295  10.300
 8422W        W 8903   3.356  16.078  10.554
 8423W        W 8904   0.972  17.522   8.999
 8424W        W 8905   2.093  17.211  10.133
 8425W        W 8906   1.313  15.851   9.358
 8426W        W 8907   1.605  16.635   9.001
 8427W        W 8908   2.602  17.408  10.849
 8428W        W 8909   1.681  16.728  10.859
 8429W        W 8910   1.662  16.444  10.337
 8430W        W 8911   0.071  15.835  10.859
 8431W        W 8912   2.903  17.370  10.458
 8432W        W 8913   0.484  14.952   8.456
 8433W        W 8914   1.011  17.210   9.455
 8434W        W 8915   3.474  16.993   8.745
 8435W        W 8916   2.887  15.393   9.312
 8436W        W 8917   3.172  15.346   7.407
 8437W        W 8918   3.637  16.147   9.713
 8438W        W 8919   3.378  17.320   7.904
 8439W        W 8920   0.697  14.906   9.760
 8440W        W 8921   3.320  15.924  10.035
 8441W        W 8922   2.725  16.346   8.494
 8442W        W 8923   2.691  16.034   7.521
 8443W        W 8924   1.899  17.178   9.661
 8444W        W 8925   1.705  15.508   8.860
 8445W        W 8926   2.305  17.595   9.854
 8446W        W 8927   3.176  16.386   8.276
 8447W        W 8928   2.078  15.044   8.292
 8448W        W 8929   0.735  17.738   7.975
 8449W        W 8930   0.106  15.237   8.574
 8450W        W 8931   2.892  15.844   9.048
 8451W        W 8932   0.350  17.461   8.963
 8452W        W 8933   3.083  15.837   7.297
 8453W        W 8934   0.106  17.595   9.461
 8454W        W 8935   0.897  17.167   9.941
 8455W        W 8936   1.270  16.527   8.560
 8456W        W 8937   1.292  14.932   9.653
 8457W        W 8938   3.521  14.694   8.950
 8458W        W 8939   0.740  16.566   7.418
 8459W        W 8940   0.395  15.599   7.597
 8460W        W 8941   0.457  17.555   8.391
 8461W        W 8942   1.588  17.038   8.639
 8462W        W 8943   1.846  15.539   8.037
 8463W        W 8944   2.906  15.790  10.407
 8464W        W 8945   3.619  17.446   8.541
 8465W        W 8946   2.246  16.738  10.025
 8466W        W 8947   0.012  16.289   8.231
 8467W        W 8948   1.123  16.704   9.804
 8468W        W 8949   2.327  15.968   8.182
 8469W        W 8950   2.204  16.458   8.286
 8470W        W 8951   0.547  15.878   9.760
 8471W        W 8952   0.532  15.754  10.682
 8472W        W 8953   0.422  14.671   8.841
 8473W        W 8954   2.190  15.018   9.402
 8474W        W 8955   1.838  15.203  10.565
 8475W        W 8956   3.376  17.745  10.497
 8476W        W 8957   2.343  14.826  10.536
 8477W        W 8958   3.362  17.127  10.658
 8478W        W 8959   2.792  15.294  10.254
 8479W        W 8960   2.592  15.232   8.524
 8480W        W 8961   1.383  15.659   7.900
 8481W        W 8962   0.952  14.943  10.564
 8482W        W 8963   3.004  15.427   8.245
 8483W        W 8964   3.371  15.909   8.190
 8484W        W 8965   1.040  14.662   7.896
 8485W        W 8966   3.361  15.196   8.931
 8486W        W 8967   3.511  17.445   7.376
 8487W        W 8968   0.418  16.648   9.078
 8488W        W 8969   2.335  15.235   7.308
 8489W        W 8970   3.469  17.567   9.028
 8490W        W 8971   3.508  14.761   9.778
 8491W        W 8972   1.953  15.973  10.332
 8492W        W 8973   2.046  17.312   8.035
 8493W        W 8974   2.446  16.606  10.775
 8494W        W 8975   2.120  14.583   9.084
 8495W        W 8976   0.732  15.486   9.147
 8496W        W 8977   0.286  16.686   9.921
 8497W        W 8978   3.339  15.476   9.499
 8498W        W 8979   3.319  16.882   7.471
 8499W        W 8980   1.754  16.365   8.532
 8500W        W 8981   3.606  14.876  10.273
 8501W        W 8982   1.755  16.711   9.867
 8502W        W 8983   1.972  15.597   9.312
 8503W        W 8984   2.824  15.895   8.150
 8504W        W 8985   3.111  15.628   7.792
 8505W        W 8986   2.920  17.668   8.181
 8506W        W 8987   2.754  17.271   8.977
 8507W        W 8988   2.650  16.350   7.955
 8508W        W 8989   2.083  16.560   8.941
 8509W        W 8990   2.964  16.348   9.008
 8510W        W 8991   0.339  15.363   9.432
 8511W        W 8992   3.117  16.415  10.259
 8512W        W 8993   1.398  17.477   8.807
 8513W        W 8994   2.399  15.340   9.895
 8514W        W 8995   3.303  15.002   8.422
 8515W        W 8996   3.094  16.321   9.723
 8516W        W 8997   0.077  15.642   9.761
 8517W        W 8998   2.937  15.437   8.779
 8518W        W 8999   3.348  15.588  10.556
 8519W        W 9000   2.233  17.287   8.774
 8520W        W 9001   0.604  15.058   7.645
 8521W        W 9002   1.708  14.712   9.455
 8522W        W 9003   1.110  16.298   8.054
 8523W        W 9004   1.764  16.927  10.367
 8524W        W 9005   1.594  15.285   8.357
 8525W        W 9006   2.950  14.882   8.785
 8526W        W 9007   1.478  16.849   9.414
 8527W        W 9008   3.248  17.572   9.540
 8528W        W 9009   0.942  15.075   8.309
 8529W        W 9010   1.464  17.372   9.269
 8530W        W 9011   0.947  15.303   7.334
 8531W        W 9012   1.748  15.912   9.728
 8532W        W 9013   2.596  14.778   9.598
 8533W        W 9014   0.016  16.621   9.483
 8534W        W 9015   1.720  16.439   7.641
 8535W        W 9016   0.988  14.754   7.411
 8536W        W 9017   1.726  15.835   8.462
 8537W        W 9018   2.696  14.811  10.161
 8538W        W 9019   1.284  16.823  10.270
 8539W        W 9020   2.088  16.605  10.487
 8540W        W 9021   2.705  16.635  10.380
 8541W        W 9022   1.989  14.775  10.885
 8542W        W 9023   1.211  15.391   9.278
 8543W        W 9024   0.637  15.347   8.676
 8544W        W 9025   1.755  17.389  10.477
 8545W        W 9026   0.790  16.874   7.836
 8546W        W 9027   2.470  16.259   9.057
 8547W        W 9028   2.750  16.058   9.456
 8548W        W 9029   1.955  16.732   9.390
 8549W        W 9030   2.425  17.106   7.522
 8550W        W 9031   2.097  15.127   8.850
 8551W        W 9032   3.576  15.405   8.118
 8552W        W 9033   0.070  17.994  10.149
 8553W        W 9034   0.487  17.220   9.681
 8554W        W 9035   1.953  15.336   9.719
 8555W        W 9036   1.316  17.359   7.568
 8556W        W 9037   2.196  16.394   7.768
 8557W        W 9038   1.039  15.585   8.285
 8558W        W 9039   1.871  15.495   7.337
 8559W        W 9040   2.455  17.060  10.515
 8560W        W 9041   2.808  14.966   8.132
 8561W        W 9042   0.138  14.814   7.580
 8562W        W 9043   1.424  17.133   9.870
 8563W        W 9044   1.223  17.049   8.962
 8564W        W 9045   0.965  17.001   7.360
 8565W        W 9046   0.206  17.242   8.128
 8566W        W 9047   0.710  16.312  10.570
 8567W        W 9048   1.414  14.872  10.756
 8568W        W 9049   2.123  15.014  10.112
 8569W        W 9050   1.318  14.782   8.393
 8570W        W 9051   2.377  14.859   7.898
 8571W        W 9052   0.322  14.791   9.475
 8572W        W 9053   0.370  15.754   8.845
 8573W        W 9054   3.059  14.862   9.251
 8574W        W 9055   0.481  15.360   8.065
 8575W        W 9056   3.052  15.048   9.681
 8576W        W 9057   3.448  16.251   7.366
 8577W        W 9058   0.740  15.009   9.185
 8578W        W 9059   1.854  15.581  10.125
 8579W        W 9060   0.002  15.271   7.603
 8580W        W 9061   0.788  16.660  10.164
 8581W        W 9062   2.146  16.058   9.343
 8582W        W 9063   0.159  16.644   7.336
 8583W        W 9064   0.894  17.055  10.462
 8584W        W 9065   0.415  16.222  10.093
 8585W        W 9066   1.406  16.327   9.887
 8586W        W 9067   3.174  14.686  10.149
 8587W        W 9068   3.572  16.296  10.140
 8588W        W 9069   3.560  16.496   7.826
 8589W        W 9070   2.423  16.828   7.925
 8590W        W 9071   2.074  16.118  10.762
 8591W        W 9072   0.404  17.085  10.802
 8592W        W 9073   3.610  15.007  10.754
 8593W        W 9074   3.328  15.935   9.375
 8594W        W 9075   1.491  14.694   7.579
 8595W        W 9076   3.030  17.293   7.522
 8596W        W 9077   0.799  15.386  10.408
 8597W        W 9078   1.233  17.380  10.270
 8598W        W 9079   3.359  15.371  10.068
 8599W        W 9080   2.809  16.649   9.403
 8600W        W 9081   1.059  15.065  10.070
 8601W        W 9082   1.528  16.134  10.827
 8602W        W 9083   1.031  17.313   8.021
 8603W        W 9084   2.786  16.811   8.285
 8604W        W 9085   0.554  15.437  10.009
 8605W        W 9086   1.883  17.499   8.473
 8606W        W 9087   3.633  16.059   8.654
 8607W        W 9088   1.855  14.692  10.373
 8608W        W 9089   2.635  17.397   9.452
 8609W        W 9090   2.938  17.741   9.160
 8610W        W 9091   2.157  17.543   7.588
 8611W        W 9092   0.167  17.435  10.430
 8612W        W 9093   0.910  15.427   9.668
 8613W        W 9094   0.880  14.775   8.778
 8614W        W 9095   2.501  15.617   9.470
 8615W        W 9096   1.299  16.788   7.670
 8616W        W 9097   3.297  16.730   9.169
 8617W        W 9098   1.110  15.190   8.834
 8618W        W 9099   0.879  16.683   8.924
 8619W        W 9100   2.418  16.378   9.639
 8620W        W 9101   0.267  16.176   7.554
 8621W        W 9102   3.238  15.158   7.870
 8622W        W 9103   1.377  14.677  10.273
 8623W        W 9104   3.083  17.479   8.731
 8624W        W 9105   3.112  16.035   8.636
 8625W        W 9106   1.229  15.708   8.852
 8626W        W 9107   1.474  15.970  10.176
 8627W        W 9108   2.585  17.123  10.039
 8628W        W 9109   1.235  15.577  10.151
 8629W        W 9110   0.643  17.363   7.531
 8630W        W 9111   3.160  17.121   8.341
 8631W        W 9112   0.764  15.913  10.227
 8632W        W 9113   3.537  15.843   7.708
 8633W        W 9114   1.282  16.900   8.179
 8634W        W 9115   2.381  16.282  10.260
 8635W        W 9116   2.272  15.910   9.804
 8636W        W 9117   0.832  16.282   9.833
 8637W        W 9118   2.833  14.804  10.656
 8638W        W 9119   0.497  14.954  10.243
 8639W        W 9120   0.836  15.977   9.296
 8640W        W 9121   1.205  15.791   7.418
 8641W        W 9122   0.008  17.550   9.963
 8642W        W 9123   1.593  16.259   9.406
 8643W        W 9124   1.416  15.284   7.511
 8644W        W 9125   0.551  16.100   8.292
 8645W        W 9126   3.117  16.178   7.837
 8646W        W 9127   3.212  15.094  10.523
 8647W        W 9128   2.648  17.303   8.486
 8648W        W 9129   0.246  16.227  10.663
 8649W        W 9130   3.212  14.691   7.959
 8650W        W 9131   2.732  17.166   7.970
 8651W        W 9132   1.634  16.224   8.055
 8652W        W 9133   2.821  15.028   7.578
 8653W        W 9134   2.886  15.635   9.764
 8654W        W 9135   0.595  16.228   8.971
 8655W        W 9136   0.889  17.167   8.620
 8656W        W 9137   2.652  15.787   8.585
 8657W        W 9138   1.675  15.166   9.281
 8658W        W 9139   3.637  17.077   9.792
 8659W        W 9140   3.555  15.064   9.353
 8660W        W 9141   0.603  17.081   8.265
 8661W        W 9142   0.518  14.698  10.818
 8662W        W 9143   1.637  17.551  10.920
 8663W        W 9144   3.392  16.519   8.710
 8664W        W 9145   2.746  16.696   7.590
 8665W        W 9146   2.898  16.939  10.839
 8666W        W 9147   1.713  14.649   8.119
 8667W        W 9148   2.426  15.518   8.978
 8668W        W 9149   0.112  17.105   9.310
 8669W        W 9150   1.365  15.067   7.951
 8670W        W 9151   1.169  16.551  10.800
 8671W        W 9152   2.163  15.532   8.514
 8672W        W 9153   2.368  16.942   9.636
 8673W        W 9154   0.522  17.547  10.071
 8674W        W 9155   1.113  17.530  10.794
 8675W        W 9156   0.964  15.327   7.808
 8676W        W 9157   2.481  15.469   8.133
 8677W        W 9158   2.439  17.577  10.370
 8678W        W 9159   1.124  16.169   8.969
 8679W        W 9160   0.387  16.656  10.431
 8680W        W 9161   2.382  16.918   9.119
 8681W        W 9162   0.818  16.567   8.361
 8682W        W 9163   1.189  17.574   9.756
 8683W        W 9164   1.567  14.993   8.797
 8684W        W 9165   0.178  16.977   7.727
 8685W        W 9166   1.697  15.928   7.597
 8686W        W 9167   0.343  16.477   8.616
 8687W        W 9168   1.633  15.119  10.080
 8688W        W 9169   3.305  14.828   7.507
 8689W        W 9170   3.398  16.574  10.606
 8690W        W 9171   3.610  16.925  10.280
 8691W        W 9172   3.018  17.723  10.891
 8692W        W 9173   3.616  16.801   8.243
 8693W        W 9174   1.913  14.680   8.646
 8694W        W 9175   0.972  17.664   8.483
 8695W        W 9176   1.471  15.405   9.708
 8696W        W 9177   1.171  14.774   9.177
 8697W        W 9178   0.234  17.596   7.725
 8698W        W 9179   2.050  16.960   8.443
 8699W        W 9180   0.402  16.578   8.018
 8700W        W 9181   0.287  15.121   9.017
 8701W        W 9182   1.835  17.086   9.074
 8702W        W 9183   0.087  14.940   8.094
 8703W        W 9184   2.751  16.146  10.021
 8704W        W 9185   2.628  15.532   7.593
 8705W        W 9186   3.145  17.204   9.241
 8706W        W 9187   1.806  17.688   9.072
 8707W        W 9188   2.500  14.695   7.413
 8708W        W 9189   2.497  15.713  10.789
 8709W        W 9190   0.480  15.243  10.788
 8710W        W 9191   0.211  15.843   8.121
 8711W        W 9192   0.902  15.832   7.846
 8712W        W 9193   2.665  16.159  10.663
 8713W        W 9194   1.008  16.440   9.372
 8714W        W 9195   2.482  14.726   8.492
 8715W        W 9196   2.827  17.619   9.932
 8716W        W 9197   2.430  16.748   8.637
 8717W        W 9198   1.892  14.973   7.708
 8718W        W 9199   3.573  14.601   8.430
 8719W        W 9200   1.261  16.236   7.593
 8720W        W 9201   3.427  15.573   8.583
 8721W        W 9202   2.119  16.743   7.460
 8722W        W 9203   3.055  16.943  10.208
 8723W        W 9204   2.709  17.644   7.675
 8724W        W 9205   1.324  15.319  10.581
 8725W        W 9206   1.144  15.903   9.822
 8726W        W 9207   3.236  17.398  10.099
 8727W        W 9208   2.336  15.348  10.476
 8728W        W 9209   0.180  15.819  10.253
 8729W        W 9210   1.940  16.296   9.979
 8730W        W 9211   0.297  17.054   8.636
 8731W        W 9212   0.444  16.351   9.526
 8732W        W 9213   2.761  16.637   9.876
 8733W        W 9214   2.429  15.756  10.240
 8734W        W 9215   1.708  17.530   9.968
 8735W        W 9216   2.998  17.056   9.656
 8736W        W 9217   0.653  17.081   9.132
 8737W        W 9218   2.999  16.840   8.777
 8738W        W 9219   0.618  17.635   9.398
 8739W        W 9220   1.639  15.687  10.608
 8740W        W 9221   1.398  17.108  10.757
 8741W        W 9222   1.524  17.346   8.134
 8742W        W 9223   0.745  16.086   7.393
 8743W        W 9224   0.084  18.172  14.292
 8744W        W 9225   0.460  17.065  13.815
 8745W        W 9226   3.165  16.795  11.585
 8746W        W 9227   1.296  16.023  12.121
 8747W        W 9228   1.802  16.686  11.719
 8748W        W 9229   0.126  15.339  14.037
 8749W        W 9230   0.888  14.619  13.839
 8750W        W 9231   2.582  15.007  12.726
 8751W        W 9232   2.231  15.878  11.296
 8752W        W 9233   2.801  15.312  14.387
 8753W        W 9234   0.167  15.104  13.512
 8754W        W 9235   0.266  17.723  14.533
 8755W        W 9236   1.788  17.113  11.265
 8756W        W 9237   0.220  15.896  12.958
 8757W        W 9238   1.113  15.787  14.195
 8758W        W 9239   3.572  15.646  12.694
 8759W        W 9240   1.644  16.022  12.580
 8760W        W 9241   2.190  17.361  12.949
 8761W        W 9242   0.690  16.795  13.181
 8762W        W 9243   0.049  16.323  12.752
 8763W        W 9244   1.085  16.295  13.944
 8764W        W 9245   3.356  16.078  14.198
 8765W        W 9246   0.972  17.522  12.643
 8766W        W 9247   2.093  17.211  13.777
 8767W        W 9248   1.313  15.851  13.002
 8768W        W 9249   1.605  16.635  12.645
 8769W        W 9250   2.602  17.408  14.493
 8770W        W 9251   1.681  16.728  14.503
 8771W        W 9252   1.662  16.444  13.981
 8772W        W 9253   0.071  15.835  14.503
 8773W        W 9254   2.903  17.370  14.102
 8774W        W 9255   0.484  14.952  12.100
 8775W        W 9256   1.011  17.210  13.099
 8776W        W 9257   3.474  16.993  12.389
 8777W        W 9258   2.887  15.393  12.956
 8778W        W 9259   3.172  15.346  11.051
 8779W        W 9260   3.637  16.147  13.357
 8780W        W 9261   3.378  17.320  11.548
 8781W        W 9262   0.697  14.906  13.404
 8782W        W 9263   3.320  15.924  13.679
 8783W        W 9264   2.725  16.346  12.138
 8784W        W 9265   2.691  16.034  11.165
 8785W        W 9266   1.899  17.178  13.305
 8786W        W 9267   1.705  15.508  12.504
 8787W        W 9268   2.305  17.595  13.498
 8788W        W 9269   3.176  16.386  11.920
 8789W        W 9270   2.078  15.044  11.936
 8790W        W 9271   0.735  17.738  11.619
 8791W        W 9272   0.106  15.237  12.218
 8792W        W 9273   2.892  15.844  12.692
 8793W        W 9274   0.350  17.461  12.607
 8794W        W 9275   3.083  15.837  10.941
 8795W        W 9276   0.897  17.167  13.585
 8796W        W 9277   1.270  16.527  12.204
 8797W        W 9278   1.292  14.932  13.297
 8798W        W 9279   3.521  14.694  12.594
 8799W        W 9280   0.740  16.566  11.062
 8800W        W 9281   0.395  15.599  11.241
 8801W        W 9282   0.457  17.555  12.035
 8802W        W 9283   1.588  17.038  12.283
 8803W        W 9284   1.846  15.539  11.681
 8804W        W 9285   2.906  15.790  14.051
 8805W        W 9286   3.619  17.446  12.185
 8806W        W 9287   2.246  16.738  13.669
 8807W        W 9288   0.012  16.289  11.875
 8808W        W 9289   2.327  15.968  11.826
 8809W        W 9290   2.204  16.458  11.930
 8810W        W 9291   0.547  15.878  13.404
 8811W        W 9292   0.422  14.671  12.485
 8812W        W 9293   2.190  15.018  13.046
 8813W        W 9294   1.838  15.203  14.209
 8814W        W 9295   2.193  15.352  11.387
 8815W        W 9296   3.376  17.745  14.141
 8816W        W 9297   2.343  14.826  14.180
 8817W        W 9298   3.362  17.127  14.302
 8818W        W 9299   2.792  15.294  13.898
 8819W        W 9300   2.592  15.232  12.168
 8820W        W 9301   2.985  16.366  14.572
 8821W        W 9302   1.383  15.659  11.544
 8822W        W 9303   0.952  14.943  14.208
 8823W        W 9304   3.004  15.427  11.889
 8824W        W 9305   3.371  15.909  11.834
 8825W        W 9306   1.040  14.662  11.540
 8826W        W 9307   3.361  15.196  12.575
 8827W        W 9308   3.511  17.445  11.020
 8828W        W 9309   0.418  16.648  12.722
 8829W        W 9310   2.335  15.235  10.952
 8830W        W 9311   3.469  17.567  12.672
 8831W        W 9312   3.508  14.761  13.422
 8832W        W 9313   1.953  15.973  13.976
 8833W        W 9314   2.046  17.312  11.679
 8834W        W 9315   2.446  16.606  14.419
 8835W        W 9316   2.120  14.583  12.728
 8836W        W 9317   0.732  15.486  12.791
 8837W        W 9318   0.286  16.686  13.565
 8838W        W 9319   3.339  15.476  13.143
 8839W        W 9320   3.319  16.882  11.115
 8840W        W 9321   1.754  16.365  12.176
 8841W        W 9322   3.606  14.876  13.917
 8842W        W 9323   1.755  16.711  13.511
 8843W        W 9324   1.972  15.597  12.956
 8844W        W 9325   2.824  15.895  11.794
 8845W        W 9326   3.111  15.628  11.436
 8846W        W 9327   2.920  17.668  11.825
 8847W        W 9328   2.754  17.271  12.621
 8848W        W 9329   2.650  16.350  11.599
 8849W        W 9330   2.083  16.560  12.585
 8850W        W 9331   2.964  16.348  12.652
 8851W        W 9332   0.339  15.363  13.076
 8852W        W 9333   3.117  16.415  13.903
 8853W        W 9334   1.398  17.477  12.451
 8854W        W 9335   2.399  15.340  13.539
 8855W        W 9336   3.303  15.002  12.066
 8856W        W 9337   3.094  16.321  13.367
 8857W        W 9338   0.077  15.642  13.405
 8858W        W 9339   2.937  15.437  12.423
 8859W        W 9340   3.348  15.588  14.200
 8860W        W 9341   2.233  17.287  12.418
 8861W        W 9342   0.604  15.058  11.289
 8862W        W 9343   1.708  14.712  13.099
 8863W        W 9344   1.110  16.298  11.698
 8864W        W 9345   1.764  16.927  14.011
 8865W        W 9346   1.594  15.285  12.001
 8866W        W 9347   2.950  14.882  12.429
 8867W        W 9348   1.478  16.849  13.058
 8868W        W 9349   3.248  17.572  13.184
 8869W        W 9350   0.942  15.075  11.953
 8870W        W 9351   1.464  17.372  12.913
 8871W        W 9352   0.947  15.303  10.978
 8872W        W 9353   1.748  15.912  13.372
 8873W        W 9354   2.596  14.778  13.242
 8874W        W 9355   0.016  16.621  13.127
 8875W        W 9356   1.720  16.439  11.285
 8876W        W 9357   0.988  14.754  11.055
 8877W        W 9358   1.726  15.835  12.106
 8878W        W 9359   2.696  14.811  13.805
 8879W        W 9360   1.284  16.823  13.914
 8880W        W 9361   2.088  16.605  14.131
 8881W        W 9362   2.705  16.635  14.024
 8882W        W 9363   1.989  14.775  14.529
 8883W        W 9364   1.211  15.391  12.922
 8884W        W 9365   0.637  15.347  12.320
 8885W        W 9366   1.755  17.389  14.121
 8886W        W 9367   0.790  16.874  11.480
 8887W        W 9368   2.470  16.259  12.701
 8888W        W 9369   2.750  16.058  13.100
 8889W        W 9370   1.955  16.732  13.034
 8890W        W 9371   2.425  17.106  11.166
 8891W        W 9372   2.097  15.127  12.494
 8892W        W 9373   3.576  15.405  11.762
 8893W        W 9374   0.070  17.994  13.793
 8894W        W 9375   0.487  17.220  13.325
 8895W        W 9376   1.953  15.336  13.363
 8896W        W 9377   1.316  17.359  11.212
 8897W        W 9378   2.196  16.394  11.412
 8898W        W 9379   1.039  15.585  11.929
 8899W        W 9380   1.871  15.495  10.981
 8900W        W 9381   2.455  17.060  14.159
 8901W        W 9382   2.808  14.966  11.776
 8902W        W 9383   0.138  14.814  11.224
 8903W        W 9384   1.424  17.133  13.514
 8904W        W 9385   1.223  17.049  12.606
 8905W        W 9386   0.965  17.001  11.004
 8906W        W 9387   0.206  17.242  11.772
 8907W        W 9388   0.710  16.312  14.214
 8908W        W 9389   1.414  14.872  14.400
 8909W        W 9390   2.123  15.014  13.756
 8910W        W 9391   1.318  14.782  12.037
 8911W        W 9392   2.377  14.859  11.542
 8912W        W 9393   0.322  14.791  13.119
 8913W        W 9394   0.370  15.754  12.489
 8914W        W 9395   3.059  14.862  12.895
 8915W        W 9396   0.481  15.360  11.709
 8916W        W 9397   3.052  15.048  13.325
 8917W        W 9398   3.448  16.251  11.010
 8918W        W 9399   0.740  15.009  12.829
 8919W        W 9400   1.854  15.581  13.769
 8920W        W 9401   0.002  15.271  11.247
 8921W        W 9402   0.788  16.660  13.808
 8922W        W 9403   2.146  16.058  12.987
 8923W        W 9404   0.159  16.644  10.980
 8924W        W 9405   0.894  17.055  14.106
 8925W        W 9406   0.415  16.222  13.737
 8926W        W 9407   1.406  16.327  13.531
 8927W        W 9408   3.174  14.686  13.793
 8928W        W 9409   3.572  16.296  13.784
 8929W        W 9410   3.560  16.496  11.470
 8930W        W 9411   2.423  16.828  11.569
 8931W        W 9412   2.074  16.118  14.406
 8932W        W 9413   0.404  17.085  14.446
 8933W        W 9414   3.610  15.007  14.398
 8934W        W 9415   3.328  15.935  13.019
 8935W        W 9416   1.491  14.694  11.223
 8936W        W 9417   3.030  17.293  11.166
 8937W        W 9418   0.799  15.386  14.052
 8938W        W 9419   1.233  17.380  13.914
 8939W        W 9420   3.359  15.371  13.712
 8940W        W 9421   2.809  16.649  13.047
 8941W        W 9422   1.059  15.065  13.714
 8942W        W 9423   1.528  16.134  14.471
 8943W        W 9424   1.031  17.313  11.665
 8944W        W 9425   2.786  16.811  11.929
 8945W        W 9426   0.554  15.437  13.653
 8946W        W 9427   1.883  17.499  12.117
 8947W        W 9428   3.633  16.059  12.298
 8948W        W 9429   1.855  14.692  14.017
 8949W        W 9430   2.635  17.397  13.096
 8950W        W 9431   2.938  17.741  12.804
 8951W        W 9432   2.157  17.543  11.232
 8952W        W 9433   0.167  17.435  14.074
 8953W        W 9434   0.910  15.427  13.312
 8954W        W 9435   0.880  14.775  12.422
 8955W        W 9436   2.501  15.617  13.114
 8956W        W 9437   1.299  16.788  11.314
 8957W        W 9438   3.297  16.730  12.813
 8958W        W 9439   0.624  17.488  14.236
 8959W        W 9440   1.110  15.190  12.478
 8960W        W 9441   0.879  16.683  12.568
 8961W        W 9442   2.418  16.378  13.283
 8962W        W 9443   0.267  16.176  11.198
 8963W        W 9444   3.238  15.158  11.514
 8964W        W 9445   1.377  14.677  13.917
 8965W        W 9446   3.083  17.479  12.375
 8966W        W 9447   3.112  16.035  12.280
 8967W        W 9448   1.229  15.708  12.496
 8968W        W 9449   1.474  15.970  13.820
 8969W        W 9450   2.585  17.123  13.683
 8970W        W 9451   1.235  15.577  13.795
 8971W        W 9452   0.643  17.363  11.175
 8972W        W 9453   3.160  17.121  11.985
 8973W        W 9454   0.764  15.913  13.871
 8974W        W 9455   3.537  15.843  11.352
 8975W        W 9456   1.282  16.900  11.823
 8976W        W 9457   2.381  16.282  13.904
 8977W        W 9458   2.272  15.910  13.448
 8978W        W 9459   0.832  16.282  13.477
 8979W        W 9460   2.833  14.804  14.300
 8980W        W 9461   0.497  14.954  13.887
 8981W        W 9462   0.836  15.977  12.940
 8982W        W 9463   1.205  15.791  11.062
 8983W        W 9464   0.008  17.550  13.607
 8984W        W 9465   1.593  16.259  13.050
 8985W        W 9466   1.416  15.284  11.155
 8986W        W 9467   0.551  16.100  11.936
 8987W        W 9468   3.117  16.178  11.481
 8988W        W 9469   3.212  15.094  14.167
 8989W        W 9470   2.648  17.303  12.130
 8990W        W 9471   0.246  16.227  14.307
 8991W        W 9472   3.212  14.691  11.603
 8992W        W 9473   2.732  17.166  11.614
 8993W        W 9474   1.634  16.224  11.699
 8994W        W 9475   2.821  15.028  11.222
 8995W        W 9476   2.886  15.635  13.408
 8996W        W 9477   0.595  16.228  12.615
 8997W        W 9478   0.889  17.167  12.264
 8998W        W 9479   2.652  15.787  12.229
 8999W        W 9480   1.675  15.166  12.925
 9000W        W 9481   3.637  17.077  13.436
 9001W        W 9482   3.555  15.064  12.997
 9002W        W 9483   0.603  17.081  11.909
 9003W        W 9484   0.518  14.698  14.462
 9004W        W 9485   1.637  17.551  14.564
 9005W        W 9486   3.392  16.519  12.354
 9006W        W 9487   2.746  16.696  11.234
 9007W        W 9488   2.898  16.939  14.483
 9008W        W 9489   1.713  14.649  11.763
 9009W        W 9490   2.426  15.518  12.622
 9010W        W 9491   0.112  17.105  12.954
 9011W        W 9492   1.365  15.067  11.595
 9012W        W 9493   1.169  16.551  14.444
 9013W        W 9494   2.163  15.532  12.158
 9014W        W 9495   2.368  16.942  13.280
 9015W        W 9496   0.522  17.547  13.715
 9016W        W 9497   1.113  17.530  14.438
 9017W        W 9498   0.964  15.327  11.452
 9018W        W 9499   2.481  15.469  11.777
 9019W        W 9500   2.439  17.577  14.014
 9020W        W 9501   1.124  16.169  12.613
 9021W        W 9502   0.387  16.656  14.075
 9022W        W 9503   2.382  16.918  12.763
 9023W        W 9504   0.818  16.567  12.005
 9024W        W 9505   1.189  17.574  13.400
 9025W        W 9506   1.567  14.993  12.441
 9026W        W 9507   0.178  16.977  11.371
 9027W        W 9508   1.697  15.928  11.241
 9028W        W 9509   0.343  16.477  12.260
 9029W        W 9510   1.633  15.119  13.724
 9030W        W 9511   3.305  14.828  11.151
 9031W        W 9512   3.398  16.574  14.250
 9032W        W 9513   3.610  16.925  13.924
 9033W        W 9514   3.018  17.723  14.535
 9034W        W 9515   3.616  16.801  11.887
 9035W        W 9516   2.146  16.068  12.400
 9036W        W 9517   1.913  14.680  12.290
 9037W        W 9518   0.972  17.664  12.127
 9038W        W 9519   1.471  15.405  13.352
 9039W        W 9520   1.171  14.774  12.821
 9040W        W 9521   0.234  17.596  11.369
 9041W        W 9522   2.050  16.960  12.087
 9042W        W 9523   0.402  16.578  11.662
 9043W        W 9524   0.287  15.121  12.661
 9044W        W 9525   1.835  17.086  12.718
 9045W        W 9526   0.087  14.940  11.738
 9046W        W 9527   2.751  16.146  13.665
 9047W        W 9528   2.628  15.532  11.237
 9048W        W 9529   3.145  17.204  12.885
 9049W        W 9530   1.806  17.688  12.716
 9050W        W 9531   2.500  14.695  11.057
 9051W        W 9532   2.497  15.713  14.433
 9052W        W 9533   0.480  15.243  14.432
 9053W        W 9534   0.211  15.843  11.765
 9054W        W 9535   0.902  15.832  11.490
 9055W        W 9536   2.665  16.159  14.307
 9056W        W 9537   1.008  16.440  13.016
 9057W        W 9538   2.482  14.726  12.136
 9058W        W 9539   2.827  17.619  13.576
 9059W        W 9540   2.430  16.748  12.281
 9060W        W 9541   1.892  14.973  11.352
 9061W        W 9542   3.573  14.601  12.074
 9062W        W 9543   1.261  16.236  11.237
 9063W        W 9544   3.427  15.573  12.227
 9064W        W 9545   3.055  16.943  13.852
 9065W        W 9546   2.709  17.644  11.319
 9066W        W 9547   1.324  15.319  14.225
 9067W        W 9548   1.144  15.903  13.466
 9068W        W 9549   3.236  17.398  13.743
 9069W        W 9550   2.336  15.348  14.120
 9070W        W 9551   0.180  15.819  13.897
 9071W        W 9552   1.940  16.296  13.623
 9072W        W 9553   0.297  17.054  12.280
 9073W        W 9554   0.444  16.351  13.170
 9074W        W 9555   2.761  16.637  13.520
 9075W        W 9556   2.429  15.756  13.884
 9076W        W 9557   1.708  17.530  13.612
 9077W        W 9558   2.998  17.056  13.300
 9078W        W 9559   2.048  17.128  14.437
 9079W        W 9560   0.653  17.081  12.776
 9080W        W 9561   2.999  16.840  12.421
 9081W        W 9562   0.618  17.635  13.042
 9082W        W 9563   1.639  15.687  14.252
 9083W        W 9564   1.398  17.108  14.401
 9084W        W 9565   1.524  17.346  11.778
 9085W        W 9566   0.745  16.086  11.037
 9086W        W 9567   0.460  17.065  17.459
 9087W        W 9568   3.165  16.795  15.229
 9088W        W 9569   1.296  16.023  15.765
 9089W        W 9570   0.811  15.871  15.929
 9090W        W 9571   1.802  16.686  15.363
 9091W        W 9572   0.126  15.339  17.681
 9092W        W 9573   0.888  14.619  17.483
 9093W        W 9574   2.582  15.007  16.370
 9094W        W 9575   2.231  15.878  14.940
 9095W        W 9576   0.167  15.104  17.156
 9096W        W 9577   1.788  17.113  14.909
 9097W        W 9578   0.220  15.896  16.602
 9098W        W 9579   3.572  15.646  16.338
 9099W        W 9580   1.644  16.022  16.224
 9100W        W 9581   2.190  17.361  16.593
 9101W        W 9582   0.690  16.795  16.825
 9102W        W 9583   0.049  16.323  16.396
 9103W        W 9584   1.085  16.295  17.588
 9104W        W 9585   2.093  17.211  17.421
 9105W        W 9586   1.313  15.851  16.646
 9106W        W 9587   1.605  16.635  16.289
 9107W        W 9588   1.662  16.444  17.625
 9108W        W 9589   2.903  17.370  17.746
 9109W        W 9590   0.484  14.952  15.744
 9110W        W 9591   1.011  17.210  16.743
 9111W        W 9592   3.474  16.993  16.033
 9112W        W 9593   2.887  15.393  16.600
 9113W        W 9594   3.172  15.346  14.695
 9114W        W 9595   3.637  16.147  17.001
 9115W        W 9596   3.378  17.320  15.192
 9116W        W 9597   0.697  14.906  17.048
 9117W        W 9598   3.320  15.924  17.323
 9118W        W 9599   2.725  16.346  15.782
 9119W        W 9600   2.691  16.034  14.809
 9120W        W 9601   1.899  17.178  16.949
 9121W        W 9602   1.705  15.508  16.148
 9122W        W 9603   2.305  17.595  17.142
 9123W        W 9604   3.176  16.386  15.564
 9124W        W 9605   2.078  15.044  15.580
 9125W        W 9606   0.735  17.738  15.263
 9126W        W 9607   0.106  15.237  15.862
 9127W        W 9608   2.892  15.844  16.336
 9128W        W 9609   0.350  17.461  16.251
 9129W        W 9610   3.083  15.837  14.585
 9130W        W 9611   0.106  17.595  16.749
 9131W        W 9612   0.897  17.167  17.229
 9132W        W 9613   1.270  16.527  15.848
 9133W        W 9614   1.292  14.932  16.941
 9134W        W 9615   3.521  14.694  16.238
 9135W        W 9616   0.740  16.566  14.706
 9136W        W 9617   0.395  15.599  14.885
 9137W        W 9618   0.457  17.555  15.679
 9138W        W 9619   1.588  17.038  15.927
 9139W        W 9620   1.846  15.539  15.325
 9140W        W 9621   3.619  17.446  15.829
 9141W        W 9622   2.246  16.738  17.313
 9142W        W 9623   0.012  16.289  15.519
 9143W        W 9624   1.123  16.704  17.092
 9144W        W 9625   2.327  15.968  15.470
 9145W        W 9626   2.204  16.458  15.574
 9146W        W 9627   0.547  15.878  17.048
 9147W        W 9628   0.422  14.671  16.129
 9148W        W 9629   2.190  15.018  16.690
 9149W        W 9630   2.193  15.352  15.031
 9150W        W 9631   3.376  17.745  17.785
 9151W        W 9632   2.343  14.826  17.824
 9152W        W 9633   2.792  15.294  17.542
 9153W        W 9634   2.592  15.232  15.812
 9154W        W 9635   1.383  15.659  15.188
 9155W        W 9636   3.004  15.427  15.533
 9156W        W 9637   3.371  15.909  15.478
 9157W        W 9638   1.040  14.662  15.184
 9158W        W 9639   3.361  15.196  16.219
 9159W        W 9640   3.511  17.445  14.664
 9160W        W 9641   0.418  16.648  16.366
 9161W        W 9642   2.335  15.235  14.596
 9162W        W 9643   3.469  17.567  16.316
 9163W        W 9644   3.508  14.761  17.066
 9164W        W 9645   1.953  15.973  17.620
 9165W        W 9646   2.046  17.312  15.323
 9166W        W 9647   2.120  14.583  16.372
 9167W        W 9648   0.732  15.486  16.435
 9168W        W 9649   0.286  16.686  17.209
 9169W        W 9650   3.339  15.476  16.787
 9170W        W 9651   3.319  16.882  14.759
 9171W        W 9652   1.754  16.365  15.820
 9172W        W 9653   3.606  14.876  17.561
 9173W        W 9654   1.755  16.711  17.155
 9174W        W 9655   1.972  15.597  16.600
 9175W        W 9656   2.824  15.895  15.438
 9176W        W 9657   3.111  15.628  15.080
 9177W        W 9658   2.920  17.668  15.469
 9178W        W 9659   2.754  17.271  16.265
 9179W        W 9660   2.083  16.560  16.229
 9180W        W 9661   2.964  16.348  16.296
 9181W        W 9662   0.339  15.363  16.720
 9182W        W 9663   3.117  16.415  17.547
 9183W        W 9664   1.398  17.477  16.095
 9184W        W 9665   3.303  15.002  15.710
 9185W        W 9666   3.094  16.321  17.011
 9186W        W 9667   0.077  15.642  17.049
 9187W        W 9668   2.937  15.437  16.067
 9188W        W 9669   2.233  17.287  16.062
 9189W        W 9670   0.604  15.058  14.933
 9190W        W 9671   1.708  14.712  16.743
 9191W        W 9672   1.110  16.298  15.342
 9192W        W 9673   1.764  16.927  17.655
 9193W        W 9674   1.594  15.285  15.645
 9194W        W 9675   2.950  14.882  16.073
 9195W        W 9676   1.478  16.849  16.702
 9196W        W 9677   3.248  17.572  16.828
 9197W        W 9678   0.942  15.075  15.597
 9198W        W 9679   1.464  17.372  16.557
 9199W        W 9680   0.947  15.303  14.622
 9200W        W 9681   1.748  15.912  17.016
 9201W        W 9682   2.596  14.778  16.886
 9202W        W 9683   0.016  16.621  16.771
 9203W        W 9684   1.720  16.439  14.929
 9204W        W 9685   0.988  14.754  14.699
 9205W        W 9686   1.726  15.835  15.750
 9206W        W 9687   2.696  14.811  17.449
 9207W        W 9688   1.284  16.823  17.558
 9208W        W 9689   2.705  16.635  17.668
 9209W        W 9690   1.211  15.391  16.566
 9210W        W 9691   0.637  15.347  15.964
 9211W        W 9692   1.755  17.389  17.765
 9212W        W 9693   0.790  16.874  15.124
 9213W        W 9694   2.470  16.259  16.345
 9214W        W 9695   2.750  16.058  16.744
 9215W        W 9696   1.955  16.732  16.678
 9216W        W 9697   2.425  17.106  14.810
 9217W        W 9698   2.097  15.127  16.138
 9218W        W 9699   3.576  15.405  15.406
 9219W        W 9700   0.070  17.994  17.437
 9220W        W 9701   0.487  17.220  16.969
 9221W        W 9702   1.953  15.336  17.007
 9222W        W 9703   1.316  17.359  14.856
 9223W        W 9704   2.196  16.394  15.056
 9224W        W 9705   1.039  15.585  15.573
 9225W        W 9706   1.871  15.495  14.625
 9226W        W 9707   2.808  14.966  15.420
 9227W        W 9708   0.138  14.814  14.868
 9228W        W 9709   1.424  17.133  17.158
 9229W        W 9710   1.223  17.049  16.250
 9230W        W 9711   0.965  17.001  14.648
 9231W        W 9712   0.206  17.242  15.416
 9232W        W 9713   2.123  15.014  17.400
 9233W        W 9714   1.318  14.782  15.681
 9234W        W 9715   2.377  14.859  15.186
 9235W        W 9716   0.322  14.791  16.763
 9236W        W 9717   0.370  15.754  16.133
 9237W        W 9718   3.059  14.862  16.539
 9238W        W 9719   0.481  15.360  15.353
 9239W        W 9720   3.052  15.048  16.969
 9240W        W 9721   3.448  16.251  14.654
 9241W        W 9722   0.740  15.009  16.473
 9242W        W 9723   1.854  15.581  17.413
 9243W        W 9724   0.002  15.271  14.891
 9244W        W 9725   0.788  16.660  17.452
 9245W        W 9726   2.146  16.058  16.631
 9246W        W 9727   0.159  16.644  14.624
 9247W        W 9728   0.415  16.222  17.381
 9248W        W 9729   1.406  16.327  17.175
 9249W        W 9730   3.174  14.686  17.437
 9250W        W 9731   3.572  16.296  17.428
 9251W        W 9732   3.560  16.496  15.114
 9252W        W 9733   2.423  16.828  15.213
 9253W        W 9734   3.328  15.935  16.663
 9254W        W 9735   1.491  14.694  14.867
 9255W        W 9736   3.030  17.293  14.810
 9256W        W 9737   3.359  15.371  17.356
 9257W        W 9738   2.809  16.649  16.691
 9258W        W 9739   1.059  15.065  17.358
 9259W        W 9740   1.031  17.313  15.309
 9260W        W 9741   2.786  16.811  15.573
 9261W        W 9742   0.554  15.437  17.297
 9262W        W 9743   1.883  17.499  15.761
 9263W        W 9744   3.633  16.059  15.942
 9264W        W 9745   1.855  14.692  17.661
 9265W        W 9746   2.635  17.397  16.740
 9266W        W 9747   2.938  17.741  16.448
 9267W        W 9748   2.157  17.543  14.876
 9268W        W 9749   0.167  17.435  17.718
 9269W        W 9750   0.910  15.427  16.956
 9270W        W 9751   0.880  14.775  16.066
 9271W        W 9752   2.501  15.617  16.758
 9272W        W 9753   1.299  16.788  14.958
 9273W        W 9754   3.297  16.730  16.457
 9274W        W 9755   1.110  15.190  16.122
 9275W        W 9756   0.879  16.683  16.212
 9276W        W 9757   2.418  16.378  16.927
 9277W        W 9758   0.267  16.176  14.842
 9278W        W 9759   3.238  15.158  15.158
 9279W        W 9760   1.377  14.677  17.561
 9280W        W 9761   3.083  17.479  16.019
 9281W        W 9762   3.112  16.035  15.924
 9282W        W 9763   1.229  15.708  16.140
 9283W        W 9764   1.474  15.970  17.464
 9284W        W 9765   2.585  17.123  17.327
 9285W        W 9766   1.235  15.577  17.439
 9286W        W 9767   0.643  17.363  14.819
 9287W        W 9768   3.160  17.121  15.629
 9288W        W 9769   0.764  15.913  17.515
 9289W        W 9770   3.537  15.843  14.996
 9290W        W 9771   1.282  16.900  15.467
 9291W        W 9772   2.381  16.282  17.548
 9292W        W 9773   2.272  15.910  17.092
 9293W        W 9774   0.832  16.282  17.121
 9294W        W 9775   0.497  14.954  17.531
 9295W        W 9776   0.836  15.977  16.584
 9296W        W 9777   1.205  15.791  14.706
 9297W        W 9778   0.008  17.550  17.251
 9298W        W 9779   1.593  16.259  16.694
 9299W        W 9780   1.416  15.284  14.799
 9300W        W 9781   0.551  16.100  15.580
 9301W        W 9782   3.117  16.178  15.125
 9302W        W 9783   2.648  17.303  15.774
 9303W        W 9784   3.212  14.691  15.247
 9304W        W 9785   2.732  17.166  15.258
 9305W        W 9786   1.634  16.224  15.343
 9306W        W 9787   2.821  15.028  14.866
 9307W        W 9788   2.886  15.635  17.052
 9308W        W 9789   0.595  16.228  16.259
 9309W        W 9790   0.889  17.167  15.908
 9310W        W 9791   2.652  15.787  15.873
 9311W        W 9792   1.675  15.166  16.569
 9312W        W 9793   3.637  17.077  17.080
 9313W        W 9794   3.555  15.064  16.641
 9314W        W 9795   0.603  17.081  15.553
 9315W        W 9796   3.392  16.519  15.998
 9316W        W 9797   1.713  14.649  15.407
 9317W        W 9798   2.426  15.518  16.266
 9318W        W 9799   0.112  17.105  16.598
 9319W        W 9800   1.365  15.067  15.239
 9320W        W 9801   2.163  15.532  15.802
 9321W        W 9802   0.522  17.547  17.359
 9322W        W 9803   0.964  15.327  15.096
 9323W        W 9804   2.481  15.469  15.421
 9324W        W 9805   2.439  17.577  17.658
 9325W        W 9806   1.124  16.169  16.257
 9326W        W 9807   2.382  16.918  16.407
 9327W        W 9808   0.818  16.567  15.649
 9328W        W 9809   1.189  17.574  17.044
 9329W        W 9810   1.567  14.993  16.085
 9330W        W 9811   0.178  16.977  15.015
 9331W        W 9812   1.697  15.928  14.885
 9332W        W 9813   0.343  16.477  15.904
 9333W        W 9814   1.633  15.119  17.368
 9334W        W 9815   3.305  14.828  14.795
 9335W        W 9816   3.616  16.801  15.531
 9336W        W 9817   2.146  16.068  16.044
 9337W        W 9818   1.913  14.680  15.934
 9338W        W 9819   0.972  17.664  15.771
 9339W        W 9820   1.471  15.405  16.996
 9340W        W 9821   1.171  14.774  16.465
 9341W        W 9822   0.234  17.596  15.013
 9342W        W 9823   2.050  16.960  15.731
 9343W        W 9824   0.402  16.578  15.306
 9344W        W 9825   0.287  15.121  16.305
 9345W        W 9826   1.835  17.086  16.362
 9346W        W 9827   0.087  14.940  15.382
 9347W        W 9828   2.751  16.146  17.309
 9348W        W 9829   2.628  15.532  14.881
 9349W        W 9830   3.145  17.204  16.529
 9350W        W 9831   1.806  17.688  16.360
 9351W        W 9832   2.500  14.695  14.701
 9352W        W 9833   0.211  15.843  15.409
 9353W        W 9834   0.902  15.832  15.134
 9354W        W 9835   1.008  16.440  16.660
 9355W        W 9836   2.482  14.726  15.780
 9356W        W 9837   2.827  17.619  17.220
 9357W        W 9838   2.430  16.748  15.925
 9358W        W 9839   1.892  14.973  14.996
 9359W        W 9840   3.573  14.601  15.718
 9360W        W 9841   1.261  16.236  14.881
 9361W        W 9842   3.427  15.573  15.871
 9362W        W 9843   2.119  16.743  14.748
 9363W        W 9844   3.055  16.943  17.496
 9364W        W 9845   2.709  17.644  14.963
 9365W        W 9846   1.144  15.903  17.110
 9366W        W 9847   3.236  17.398  17.387
 9367W        W 9848   0.180  15.819  17.541
 9368W        W 9849   1.940  16.296  17.267
 9369W        W 9850   0.297  17.054  15.924
 9370W        W 9851   0.444  16.351  16.814
 9371W        W 9852   2.761  16.637  17.164
 9372W        W 9853   2.429  15.756  17.528
 9373W        W 9854   1.708  17.530  17.256
 9374W        W 9855   2.998  17.056  16.944
 9375W        W 9856   0.653  17.081  16.420
 9376W        W 9857   2.999  16.840  16.065
 9377W        W 9858   0.618  17.635  16.686
 9378W        W 9859   1.524  17.346  15.422
 9379W        W 9860   0.745  16.086  14.681
 9380W        W 9861   3.728   3.595   3.359
 9381W        W 9862   4.104   2.488   2.882
 9382W        W 9863   6.809   2.218   0.652
 9383W        W 9864   6.939   3.303   2.679
 9384W        W 9865   4.857   3.294   0.205
 9385W        W 9866   4.940   1.446   1.188
 9386W        W 9867   4.455   1.294   1.352
 9387W        W 9868   5.446   2.109   0.786
 9388W        W 9869   5.121   3.201   3.141
 9389W        W 9870   3.770   0.762   3.104
 9390W        W 9871   4.532   0.042   2.906
 9391W        W 9872   6.226   0.430   1.793
 9392W        W 9873   5.875   1.301   0.363
 9393W        W 9874   6.445   0.735   3.454
 9394W        W 9875   3.811   0.527   2.579
 9395W        W 9876   3.910   3.146   3.600
 9396W        W 9877   5.432   2.536   0.332
 9397W        W 9878   3.864   1.319   2.025
 9398W        W 9879   4.757   1.210   3.262
 9399W        W 9880   7.216   1.069   1.761
 9400W        W 9881   6.980   2.112   2.620
 9401W        W 9882   5.288   1.445   1.647
 9402W        W 9883   5.834   2.784   2.016
 9403W        W 9884   4.334   2.218   2.248
 9404W        W 9885   3.693   1.746   1.819
 9405W        W 9886   4.729   1.718   3.011
 9406W        W 9887   7.000   1.501   3.265
 9407W        W 9888   4.616   2.945   1.710
 9408W        W 9889   5.737   2.634   2.844
 9409W        W 9890   4.957   1.274   2.069
 9410W        W 9891   5.249   2.058   1.712
 9411W        W 9892   6.246   2.831   3.560
 9412W        W 9893   5.325   2.151   3.570
 9413W        W 9894   5.306   1.867   3.048
 9414W        W 9895   3.715   1.258   3.570
 9415W        W 9896   6.547   2.793   3.169
 9416W        W 9897   4.128   0.375   1.167
 9417W        W 9898   4.655   2.633   2.166
 9418W        W 9899   7.118   2.416   1.456
 9419W        W 9900   6.531   0.816   2.023
 9420W        W 9901   6.816   0.769   0.118
 9421W        W 9902   7.281   1.570   2.424
 9422W        W 9903   5.248   3.277   2.177
 9423W        W 9904   7.022   2.743   0.615
 9424W        W 9905   4.151   3.529   0.369
 9425W        W 9906   4.544   3.575   1.045
 9426W        W 9907   4.341   0.329   2.471
 9427W        W 9908   6.964   1.347   2.746
 9428W        W 9909   6.369   1.769   1.205
 9429W        W 9910   6.335   1.457   0.232
 9430W        W 9911   5.543   2.601   2.372
 9431W        W 9912   5.349   0.931   1.571
 9432W        W 9913   5.949   3.018   2.565
 9433W        W 9914   6.820   1.809   0.987
 9434W        W 9915   5.722   0.467   1.003
 9435W        W 9916   4.379   3.161   0.686
 9436W        W 9917   3.750   0.660   1.285
 9437W        W 9918   6.536   1.267   1.759
 9438W        W 9919   3.994   2.884   1.674
 9439W        W 9920   5.335   3.234   0.544
 9440W        W 9921   6.727   1.260   0.008
 9441W        W 9922   3.750   3.018   2.172
 9442W        W 9923   4.541   2.590   2.652
 9443W        W 9924   4.914   1.950   1.271
 9444W        W 9925   4.936   0.355   2.364
 9445W        W 9926   7.165   0.117   1.661
 9446W        W 9927   4.384   1.989   0.129
 9447W        W 9928   4.039   1.022   0.308
 9448W        W 9929   4.101   2.978   1.102
 9449W        W 9930   5.232   2.461   1.350
 9450W        W 9931   6.564   3.320   3.064
 9451W        W 9932   5.490   0.962   0.748
 9452W        W 9933   6.550   1.213   3.118
 9453W        W 9934   7.263   2.869   1.252
 9454W        W 9935   5.890   2.161   2.736
 9455W        W 9936   3.656   1.712   0.942
 9456W        W 9937   4.767   2.127   2.515
 9457W        W 9938   5.971   1.391   0.893
 9458W        W 9939   5.848   1.881   0.997
 9459W        W 9940   4.191   1.301   2.471
 9460W        W 9941   4.176   1.177   3.393
 9461W        W 9942   4.066   0.094   1.552
 9462W        W 9943   5.834   0.441   2.113
 9463W        W 9944   5.482   0.626   3.276
 9464W        W 9945   5.837   0.775   0.454
 9465W        W 9946   7.020   3.168   3.208
 9466W        W 9947   5.987   0.249   3.247
 9467W        W 9948   7.006   2.550   3.369
 9468W        W 9949   6.436   0.717   2.965
 9469W        W 9950   6.236   0.655   1.235
 9470W        W 9951   6.629   1.789   3.639
 9471W        W 9952   4.369   3.365   1.625
 9472W        W 9953   5.027   1.082   0.611
 9473W        W 9954   4.596   0.366   3.275
 9474W        W 9955   6.648   0.850   0.956
 9475W        W 9956   7.015   1.332   0.901
 9476W        W 9957   4.758   3.549   3.372
 9477W        W 9958   4.684   0.085   0.607
 9478W        W 9959   7.005   0.619   1.642
 9479W        W 9960   7.155   2.868   0.087
 9480W        W 9961   4.062   2.071   1.789
 9481W        W 9962   5.979   0.658   0.019
 9482W        W 9963   7.113   2.990   1.739
 9483W        W 9964   7.152   0.184   2.489
 9484W        W 9965   5.690   2.735   0.746
 9485W        W 9966   6.090   2.029   3.486
 9486W        W 9967   5.764   0.006   1.795
 9487W        W 9968   4.376   0.909   1.858
 9488W        W 9969   3.930   2.109   2.632
 9489W        W 9970   5.789   3.302   1.338
 9490W        W 9971   6.983   0.899   2.210
 9491W        W 9972   5.620   3.246   2.977
 9492W        W 9973   6.963   2.305   0.182
 9493W        W 9974   5.398   1.788   1.243
 9494W        W 9975   7.250   0.299   2.984
 9495W        W 9976   5.399   2.134   2.578
 9496W        W 9977   5.616   1.020   2.023
 9497W        W 9978   6.468   1.318   0.861
 9498W        W 9979   6.755   1.051   0.503
 9499W        W 9980   6.564   3.091   0.892
 9500W        W 9981   6.398   2.694   1.688
 9501W        W 9982   6.294   1.773   0.666
 9502W        W 9983   5.727   1.983   1.652
 9503W        W 9984   6.608   1.771   1.719
 9504W        W 9985   3.983   0.786   2.143
 9505W        W 9986   6.761   1.838   2.970
 9506W        W 9987   7.112   3.456   2.116
 9507W        W 9988   5.042   2.900   1.518
 9508W        W 9989   6.049   3.433   2.842
 9509W        W 9990   6.043   0.763   2.606
 9510W        W 9991   5.250   3.471   2.667
 9511W        W 9992   6.947   0.425   1.133
 9512W        W 9993   6.738   1.744   2.434
 9513W        W 9994   3.721   1.065   2.472
 9514W        W 9995   6.581   0.860   1.490
 9515W        W 9996   6.992   1.011   3.267
 9516W        W 9997   5.877   2.710   1.485
 9517W        W 9998   5.133   3.301   1.098
 9518W        W 9999   4.248   0.481   0.356
 9519W        W10000   5.352   0.135   2.166
 9520W        W10001   4.380   3.255   0.014
 9521W        W10002   4.754   1.721   0.765
 9522W        W10003   5.408   2.350   3.078
 9523W        W10004   5.238   0.708   1.068
 9524W        W10005   6.594   0.305   1.496
 9525W        W10006   6.314   3.587   1.824
 9526W        W10007   5.726   3.235   2.164
 9527W        W10008   5.122   2.272   2.125
 9528W        W10009   6.892   2.995   2.251
 9529W        W10010   4.586   0.498   1.020
 9530W        W10011   5.108   2.795   1.980
 9531W        W10012   4.591   0.726   0.045
 9532W        W10013   5.392   1.335   2.439
 9533W        W10014   6.240   0.201   2.309
 9534W        W10015   3.660   2.044   2.194
 9535W        W10016   5.364   1.862   0.352
 9536W        W10017   4.632   0.177   0.122
 9537W        W10018   5.370   1.258   1.173
 9538W        W10019   6.340   0.234   2.872
 9539W        W10020   4.928   2.246   2.981
 9540W        W10021   5.732   2.028   3.198
 9541W        W10022   6.349   2.058   3.091
 9542W        W10023   5.633   0.198   3.596
 9543W        W10024   4.855   0.814   1.989
 9544W        W10025   4.067   3.482   1.063
 9545W        W10026   5.399   2.812   3.188
 9546W        W10027   4.434   2.297   0.547
 9547W        W10028   6.114   1.682   1.768
 9548W        W10029   6.394   1.481   2.167
 9549W        W10030   5.599   2.155   2.101
 9550W        W10031   6.069   2.529   0.233
 9551W        W10032   5.741   0.550   1.561
 9552W        W10033   7.220   0.828   0.829
 9553W        W10034   3.714   3.417   2.860
 9554W        W10035   4.131   2.643   2.392
 9555W        W10036   3.698   3.489   0.624
 9556W        W10037   5.597   0.759   2.430
 9557W        W10038   4.960   2.782   0.279
 9558W        W10039   6.865   3.164   0.465
 9559W        W10040   5.840   1.817   0.479
 9560W        W10041   4.683   1.008   0.996
 9561W        W10042   5.515   0.918   0.048
 9562W        W10043   6.099   2.483   3.226
 9563W        W10044   6.452   0.389   0.843
 9564W        W10045   3.782   0.237   0.291
 9565W        W10046   5.068   2.556   2.581
 9566W        W10047   4.867   2.472   1.673
 9567W        W10048   4.609   2.424   0.071
 9568W        W10049   3.850   2.665   0.839
 9569W        W10050   4.354   1.735   3.281
 9570W        W10051   5.058   0.295   3.467
 9571W        W10052   5.767   0.437   2.823
 9572W        W10053   4.962   0.205   1.104
 9573W        W10054   6.021   0.282   0.609
 9574W        W10055   3.966   0.214   2.186
 9575W        W10056   4.014   1.177   1.556
 9576W        W10057   6.703   0.285   1.962
 9577W        W10058   4.125   0.783   0.776
 9578W        W10059   6.696   0.471   2.392
 9579W        W10060   7.092   1.674   0.077
 9580W        W10061   4.384   0.432   1.896
 9581W        W10062   3.646   0.694   0.314
 9582W        W10063   4.432   2.083   2.875
 9583W        W10064   5.790   1.481   2.054
 9584W        W10065   5.657   3.560   0.350
 9585W        W10066   3.803   2.067   0.047
 9586W        W10067   4.538   2.478   3.173
 9587W        W10068   4.059   1.645   2.804
 9588W        W10069   5.050   1.750   2.598
 9589W        W10070   6.818   0.109   2.860
 9590W        W10071   7.216   1.719   2.851
 9591W        W10072   7.204   1.919   0.537
 9592W        W10073   6.067   2.251   0.636
 9593W        W10074   6.541   3.551   0.331
 9594W        W10075   5.718   1.541   3.473
 9595W        W10076   4.048   2.508   3.513
 9596W        W10077   7.254   0.430   3.465
 9597W        W10078   6.972   1.358   2.086
 9598W        W10079   5.280   3.488   3.563
 9599W        W10080   5.135   0.117   0.290
 9600W        W10081   6.674   2.716   0.233
 9601W        W10082   4.443   0.809   3.119
 9602W        W10083   4.877   2.803   2.981
 9603W        W10084   7.003   0.794   2.779
 9604W        W10085   6.214   3.453   0.747
 9605W        W10086   6.453   2.072   2.114
 9606W        W10087   4.703   0.488   2.781
 9607W        W10088   5.172   1.557   3.538
 9608W        W10089   4.675   2.736   0.732
 9609W        W10090   6.430   2.234   0.996
 9610W        W10091   4.198   0.860   2.720
 9611W        W10092   5.527   2.922   1.184
 9612W        W10093   7.277   1.482   1.365
 9613W        W10094   5.499   0.115   3.084
 9614W        W10095   6.279   2.820   2.163
 9615W        W10096   6.582   3.164   1.871
 9616W        W10097   5.801   2.966   0.299
 9617W        W10098   3.811   2.858   3.141
 9618W        W10099   4.554   0.850   2.379
 9619W        W10100   4.524   0.198   1.489
 9620W        W10101   6.145   1.040   2.181
 9621W        W10102   4.943   2.211   0.381
 9622W        W10103   6.941   2.153   1.880
 9623W        W10104   4.268   2.911   3.303
 9624W        W10105   6.655   3.593   1.100
 9625W        W10106   4.754   0.613   1.545
 9626W        W10107   4.523   2.106   1.635
 9627W        W10108   4.836   3.517   2.385
 9628W        W10109   6.903   3.613   3.417
 9629W        W10110   6.062   1.801   2.350
 9630W        W10111   3.911   1.599   0.265
 9631W        W10112   7.045   3.257   0.962
 9632W        W10113   6.882   0.581   0.581
 9633W        W10114   5.021   0.100   2.984
 9634W        W10115   6.727   2.902   1.442
 9635W        W10116   6.756   1.458   1.347
 9636W        W10117   4.873   1.131   1.563
 9637W        W10118   5.118   1.393   2.887
 9638W        W10119   6.229   2.546   2.750
 9639W        W10120   4.879   1.000   2.862
 9640W        W10121   4.858   3.466   1.478
 9641W        W10122   4.175   3.425   3.112
 9642W        W10123   4.287   2.786   0.242
 9643W        W10124   6.804   2.544   1.052
 9644W        W10125   4.408   1.336   2.938
 9645W        W10126   7.181   1.266   0.419
 9646W        W10127   4.926   2.323   0.890
 9647W        W10128   6.025   1.705   2.971
 9648W        W10129   5.916   1.333   2.515
 9649W        W10130   6.686   3.593   2.373
 9650W        W10131   6.477   0.227   3.367
 9651W        W10132   4.141   0.377   2.954
 9652W        W10133   4.480   1.400   2.007
 9653W        W10134   4.849   1.214   0.129
 9654W        W10135   3.652   2.973   2.674
 9655W        W10136   5.237   1.682   2.117
 9656W        W10137   5.060   0.707   0.222
 9657W        W10138   4.195   1.523   1.003
 9658W        W10139   3.966   3.375   2.440
 9659W        W10140   6.761   1.601   0.548
 9660W        W10141   6.856   0.517   3.234
 9661W        W10142   3.890   1.650   3.374
 9662W        W10143   6.856   0.114   0.670
 9663W        W10144   6.376   2.589   0.681
 9664W        W10145   5.278   1.647   0.766
 9665W        W10146   6.465   0.451   0.289
 9666W        W10147   6.530   1.058   2.475
 9667W        W10148   4.239   1.651   1.682
 9668W        W10149   4.533   2.590   1.331
 9669W        W10150   6.296   1.210   1.296
 9670W        W10151   5.319   0.589   1.992
 9671W        W10152   7.281   2.500   2.503
 9672W        W10153   7.199   0.487   2.064
 9673W        W10154   3.738   3.317   1.440
 9674W        W10155   4.247   2.504   0.976
 9675W        W10156   4.162   0.121   3.529
 9676W        W10157   5.281   2.974   3.631
 9677W        W10158   7.036   1.942   1.421
 9678W        W10159   6.390   2.119   0.301
 9679W        W10160   5.685   3.640   2.513
 9680W        W10161   6.542   2.362   3.550
 9681W        W10162   5.357   0.072   0.830
 9682W        W10163   6.070   0.941   1.689
 9683W        W10164   3.756   2.528   2.021
 9684W        W10165   5.009   0.490   0.662
 9685W        W10166   4.813   1.974   3.511
 9686W        W10167   5.807   0.955   1.225
 9687W        W10168   6.012   2.365   2.347
 9688W        W10169   4.166   2.970   2.782
 9689W        W10170   4.757   2.953   3.505
 9690W        W10171   4.608   0.750   0.519
 9691W        W10172   6.125   0.892   0.844
 9692W        W10173   6.083   3.000   3.081
 9693W        W10174   4.768   1.592   1.680
 9694W        W10175   4.423   3.290   2.545
 9695W        W10176   7.168   3.407   0.146
 9696W        W10177   4.031   2.079   3.142
 9697W        W10178   6.026   2.341   1.830
 9698W        W10179   4.462   1.990   1.072
 9699W        W10180   4.833   2.997   2.467
 9700W        W10181   5.211   0.416   1.508
 9701W        W10182   3.822   2.400   0.438
 9702W        W10183   5.341   1.351   0.308
 9703W        W10184   3.987   1.900   1.327
 9704W        W10185   6.949   0.251   0.218
 9705W        W10186   7.042   1.997   3.317
 9706W        W10187   5.696   3.254   3.469
 9707W        W10188   7.254   2.348   2.991
 9708W        W10189   6.662   3.146   3.602
 9709W        W10190   4.401   3.602   2.080
 9710W        W10191   7.260   2.224   0.954
 9711W        W10192   5.790   1.491   1.467
 9712W        W10193   4.616   3.087   1.194
 9713W        W10194   5.115   0.828   2.419
 9714W        W10195   4.815   0.197   1.888
 9715W        W10196   3.878   3.019   0.436
 9716W        W10197   5.694   2.383   1.154
 9717W        W10198   4.569   3.178   3.033
 9718W        W10199   4.046   2.001   0.729
 9719W        W10200   3.931   0.544   1.728
 9720W        W10201   5.479   2.509   1.785
 9721W        W10202   3.731   0.363   0.805
 9722W        W10203   6.395   1.569   2.732
 9723W        W10204   6.272   0.955   0.304
 9724W        W10205   6.789   2.627   1.952
 9725W        W10206   5.450   3.111   1.783
 9726W        W10207   4.862   3.215   0.694
 9727W        W10208   6.144   0.118   0.124
 9728W        W10209   3.944   3.378   1.865
 9729W        W10210   6.141   1.136   3.500
 9730W        W10211   4.124   0.666   3.499
 9731W        W10212   3.855   1.266   0.832
 9732W        W10213   4.546   1.255   0.557
 9733W        W10214   6.309   1.582   3.374
 9734W        W10215   4.652   1.863   2.083
 9735W        W10216   6.126   0.149   1.203
 9736W        W10217   5.257   3.580   1.706
 9737W        W10218   6.471   3.042   2.643
 9738W        W10219   6.055   3.191   1.754
 9739W        W10220   6.074   2.171   1.348
 9740W        W10221   5.536   0.396   0.419
 9741W        W10222   7.217   0.024   1.141
 9742W        W10223   4.905   1.659   0.304
 9743W        W10224   7.071   0.996   1.294
 9744W        W10225   5.763   2.166   0.171
 9745W        W10226   6.699   2.366   2.919
 9746W        W10227   6.353   3.067   0.386
 9747W        W10228   4.968   0.742   3.292
 9748W        W10229   4.788   1.326   2.533
 9749W        W10230   6.880   2.821   2.810
 9750W        W10231   5.980   0.771   3.187
 9751W        W10232   3.824   1.242   2.964
 9752W        W10233   5.584   1.719   2.690
 9753W        W10234   3.941   2.477   1.347
 9754W        W10235   4.088   1.774   2.237
 9755W        W10236   6.405   2.060   2.587
 9756W        W10237   6.177   3.440   3.398
 9757W        W10238   6.073   1.179   2.951
 9758W        W10239   6.350   3.233   1.356
 9759W        W10240   5.352   2.953   2.679
 9760W        W10241   4.837   3.308   1.948
 9761W        W10242   6.642   2.479   2.367
 9762W        W10243   5.692   2.551   3.504
 9763W        W10244   4.297   2.504   1.843
 9764W        W10245   6.643   2.263   1.488
 9765W        W10246   6.284   3.329   2.239
 9766W        W10247   4.262   3.058   2.109
 9767W        W10248   5.283   1.110   3.319
 9768W        W10249   5.734   3.276   0.830
 9769W        W10250   5.042   2.531   3.468
 9770W        W10251   5.168   2.769   0.845
 9771W        W10252   4.389   1.509   0.104
 9772W        W10253   3.728   3.595   7.003
 9773W        W10254   4.104   2.488   6.526
 9774W        W10255   6.809   2.218   4.296
 9775W        W10256   6.939   3.303   6.323
 9776W        W10257   4.857   3.294   3.849
 9777W        W10258   4.940   1.446   4.832
 9778W        W10259   4.455   1.294   4.996
 9779W        W10260   5.446   2.109   4.430
 9780W        W10261   3.770   0.762   6.748
 9781W        W10262   4.532   0.042   6.550
 9782W        W10263   6.226   0.430   5.437
 9783W        W10264   5.875   1.301   4.007
 9784W        W10265   6.445   0.735   7.098
 9785W        W10266   3.811   0.527   6.223
 9786W        W10267   3.910   3.146   7.244
 9787W        W10268   5.432   2.536   3.976
 9788W        W10269   3.864   1.319   5.669
 9789W        W10270   4.757   1.210   6.906
 9790W        W10271   7.216   1.069   5.405
 9791W        W10272   6.980   2.112   6.264
 9792W        W10273   5.288   1.445   5.291
 9793W        W10274   5.834   2.784   5.660
 9794W        W10275   4.334   2.218   5.892
 9795W        W10276   3.693   1.746   5.463
 9796W        W10277   4.729   1.718   6.655
 9797W        W10278   7.000   1.501   6.909
 9798W        W10279   4.616   2.945   5.354
 9799W        W10280   5.737   2.634   6.488
 9800W        W10281   4.957   1.274   5.713
 9801W        W10282   5.249   2.058   5.356
 9802W        W10283   6.246   2.831   7.204
 9803W        W10284   5.325   2.151   7.214
 9804W        W10285   5.306   1.867   6.692
 9805W        W10286   3.715   1.258   7.214
 9806W        W10287   6.547   2.793   6.813
 9807W        W10288   4.128   0.375   4.811
 9808W        W10289   4.655   2.633   5.810
 9809W        W10290   7.118   2.416   5.100
 9810W        W10291   6.531   0.816   5.667
 9811W        W10292   6.816   0.769   3.762
 9812W        W10293   7.281   1.570   6.068
 9813W        W10294   5.248   3.277   5.821
 9814W        W10295   7.022   2.743   4.259
 9815W        W10296   4.151   3.529   4.013
 9816W        W10297   4.544   3.575   4.689
 9817W        W10298   4.341   0.329   6.115
 9818W        W10299   6.964   1.347   6.390
 9819W        W10300   6.369   1.769   4.849
 9820W        W10301   6.335   1.457   3.876
 9821W        W10302   5.543   2.601   6.016
 9822W        W10303   5.349   0.931   5.215
 9823W        W10304   5.949   3.018   6.209
 9824W        W10305   6.820   1.809   4.631
 9825W        W10306   5.722   0.467   4.647
 9826W        W10307   4.379   3.161   4.330
 9827W        W10308   3.750   0.660   4.929
 9828W        W10309   6.536   1.267   5.403
 9829W        W10310   3.994   2.884   5.318
 9830W        W10311   5.335   3.234   4.188
 9831W        W10312   6.727   1.260   3.652
 9832W        W10313   3.750   3.018   5.816
 9833W        W10314   4.541   2.590   6.296
 9834W        W10315   4.914   1.950   4.915
 9835W        W10316   4.936   0.355   6.008
 9836W        W10317   7.165   0.117   5.305
 9837W        W10318   4.384   1.989   3.773
 9838W        W10319   4.039   1.022   3.952
 9839W        W10320   4.101   2.978   4.746
 9840W        W10321   5.232   2.461   4.994
 9841W        W10322   6.564   3.320   6.708
 9842W        W10323   5.490   0.962   4.392
 9843W        W10324   6.873   3.360   5.164
 9844W        W10325   6.550   1.213   6.762
 9845W        W10326   7.263   2.869   4.896
 9846W        W10327   3.656   1.712   4.586
 9847W        W10328   4.767   2.127   6.159
 9848W        W10329   5.971   1.391   4.537
 9849W        W10330   5.848   1.881   4.641
 9850W        W10331   4.191   1.301   6.115
 9851W        W10332   4.176   1.177   7.037
 9852W        W10333   4.066   0.094   5.196
 9853W        W10334   5.834   0.441   5.757
 9854W        W10335   5.482   0.626   6.920
 9855W        W10336   5.837   0.775   4.098
 9856W        W10337   7.020   3.168   6.852
 9857W        W10338   5.987   0.249   6.891
 9858W        W10339   7.006   2.550   7.013
 9859W        W10340   6.436   0.717   6.609
 9860W        W10341   6.236   0.655   4.879
 9861W        W10342   6.629   1.789   7.283
 9862W        W10343   4.369   3.365   5.269
 9863W        W10344   5.027   1.082   4.255
 9864W        W10345   4.596   0.366   6.919
 9865W        W10346   6.648   0.850   4.600
 9866W        W10347   7.015   1.332   4.545
 9867W        W10348   4.758   3.549   7.016
 9868W        W10349   4.684   0.085   4.251
 9869W        W10350   7.005   0.619   5.286
 9870W        W10351   7.155   2.868   3.731
 9871W        W10352   4.062   2.071   5.433
 9872W        W10353   7.113   2.990   5.383
 9873W        W10354   7.152   0.184   6.133
 9874W        W10355   5.597   1.396   6.687
 9875W        W10356   5.690   2.735   4.390
 9876W        W10357   6.090   2.029   7.130
 9877W        W10358   5.764   0.006   5.439
 9878W        W10359   4.376   0.909   5.502
 9879W        W10360   3.930   2.109   6.276
 9880W        W10361   5.789   3.302   4.982
 9881W        W10362   6.983   0.899   5.854
 9882W        W10363   5.620   3.246   6.621
 9883W        W10364   6.963   2.305   3.826
 9884W        W10365   5.398   1.788   4.887
 9885W        W10366   7.250   0.299   6.628
 9886W        W10367   5.399   2.134   6.222
 9887W        W10368   5.616   1.020   5.667
 9888W        W10369   6.468   1.318   4.505
 9889W        W10370   6.564   3.091   4.536
 9890W        W10371   6.398   2.694   5.332
 9891W        W10372   6.294   1.773   4.310
 9892W        W10373   5.727   1.983   5.296
 9893W        W10374   6.608   1.771   5.363
 9894W        W10375   3.983   0.786   5.787
 9895W        W10376   7.112   3.456   5.760
 9896W        W10377   5.042   2.900   5.162
 9897W        W10378   6.049   3.433   6.486
 9898W        W10379   6.043   0.763   6.250
 9899W        W10380   6.947   0.425   4.777
 9900W        W10381   6.738   1.744   6.078
 9901W        W10382   3.721   1.065   6.116
 9902W        W10383   6.581   0.860   5.134
 9903W        W10384   6.992   1.011   6.911
 9904W        W10385   5.877   2.710   5.129
 9905W        W10386   5.133   3.301   4.742
 9906W        W10387   4.248   0.481   4.000
 9907W        W10388   5.352   0.135   5.810
 9908W        W10389   4.380   3.255   3.658
 9909W        W10390   4.754   1.721   4.409
 9910W        W10391   5.408   2.350   6.722
 9911W        W10392   5.238   0.708   4.712
 9912W        W10393   6.594   0.305   5.140
 9913W        W10394   6.314   3.587   5.468
 9914W        W10395   5.726   3.235   5.808
 9915W        W10396   5.122   2.272   5.769
 9916W        W10397   6.892   2.995   5.895
 9917W        W10398   4.586   0.498   4.664
 9918W        W10399   5.108   2.795   5.624
 9919W        W10400   4.591   0.726   3.689
 9920W        W10401   5.392   1.335   6.083
 9921W        W10402   6.240   0.201   5.953
 9922W        W10403   3.660   2.044   5.838
 9923W        W10404   5.364   1.862   3.996
 9924W        W10405   4.632   0.177   3.766
 9925W        W10406   5.370   1.258   4.817
 9926W        W10407   6.340   0.234   6.516
 9927W        W10408   4.928   2.246   6.625
 9928W        W10409   5.732   2.028   6.842
 9929W        W10410   6.349   2.058   6.735
 9930W        W10411   5.633   0.198   7.240
 9931W        W10412   4.855   0.814   5.633
 9932W        W10413   4.281   0.770   5.031
 9933W        W10414   4.067   3.482   4.707
 9934W        W10415   5.399   2.812   6.832
 9935W        W10416   4.434   2.297   4.191
 9936W        W10417   6.114   1.682   5.412
 9937W        W10418   6.394   1.481   5.811
 9938W        W10419   5.599   2.155   5.745
 9939W        W10420   6.069   2.529   3.877
 9940W        W10421   5.741   0.550   5.205
 9941W        W10422   7.220   0.828   4.473
 9942W        W10423   3.714   3.417   6.504
 9943W        W10424   4.131   2.643   6.036
 9944W        W10425   3.698   3.489   4.268
 9945W        W10426   5.597   0.759   6.074
 9946W        W10427   4.960   2.782   3.923
 9947W        W10428   6.865   3.164   4.109
 9948W        W10429   5.840   1.817   4.123
 9949W        W10430   4.683   1.008   4.640
 9950W        W10431   5.515   0.918   3.692
 9951W        W10432   6.099   2.483   6.870
 9952W        W10433   6.452   0.389   4.487
 9953W        W10434   3.782   0.237   3.935
 9954W        W10435   5.068   2.556   6.225
 9955W        W10436   4.867   2.472   5.317
 9956W        W10437   4.609   2.424   3.715
 9957W        W10438   3.850   2.665   4.483
 9958W        W10439   4.354   1.735   6.925
 9959W        W10440   5.058   0.295   7.111
 9960W        W10441   5.767   0.437   6.467
 9961W        W10442   4.962   0.205   4.748
 9962W        W10443   6.021   0.282   4.253
 9963W        W10444   3.966   0.214   5.830
 9964W        W10445   4.014   1.177   5.200
 9965W        W10446   6.703   0.285   5.606
 9966W        W10447   4.125   0.783   4.420
 9967W        W10448   6.696   0.471   6.036
 9968W        W10449   7.092   1.674   3.721
 9969W        W10450   4.384   0.432   5.540
 9970W        W10451   5.498   1.004   6.480
 9971W        W10452   3.646   0.694   3.958
 9972W        W10453   4.432   2.083   6.519
 9973W        W10454   5.790   1.481   5.698
 9974W        W10455   5.657   3.560   3.994
 9975W        W10456   3.803   2.067   3.691
 9976W        W10457   4.538   2.478   6.817
 9977W        W10458   4.059   1.645   6.448
 9978W        W10459   5.050   1.750   6.242
 9979W        W10460   6.818   0.109   6.504
 9980W        W10461   7.216   1.719   6.495
 9981W        W10462   7.204   1.919   4.181
 9982W        W10463   6.067   2.251   4.280
 9983W        W10464   6.541   3.551   3.975
 9984W        W10465   5.718   1.541   7.117
 9985W        W10466   4.048   2.508   7.157
 9986W        W10467   7.254   0.430   7.109
 9987W        W10468   6.972   1.358   5.730
 9988W        W10469   5.280   3.488   7.207
 9989W        W10470   5.135   0.117   3.934
 9990W        W10471   6.674   2.716   3.877
 9991W        W10472   4.443   0.809   6.763
 9992W        W10473   4.877   2.803   6.625
 9993W        W10474   7.003   0.794   6.423
 9994W        W10475   6.214   3.453   4.391
 9995W        W10476   6.453   2.072   5.758
 9996W        W10477   4.703   0.488   6.425
 9997W        W10478   5.172   1.557   7.182
 9998W        W10479   4.675   2.736   4.376
 9999W        W10480   6.430   2.234   4.640
10000W        W10481   4.198   0.860   6.364
10001W        W10482   5.527   2.922   4.828
10002W        W10483   7.277   1.482   5.009
10003W        W10484   5.499   0.115   6.728
10004W        W10485   6.279   2.820   5.807
10005W        W10486   6.582   3.164   5.515
10006W        W10487   5.801   2.966   3.943
10007W        W10488   3.811   2.858   6.785
10008W        W10489   4.554   0.850   6.023
10009W        W10490   4.524   0.198   5.133
10010W        W10491   6.145   1.040   5.825
10011W        W10492   4.943   2.211   4.025
10012W        W10493   6.941   2.153   5.524
10013W        W10494   4.268   2.911   6.947
10014W        W10495   6.655   3.593   4.744
10015W        W10496   4.754   0.613   5.189
10016W        W10497   4.523   2.106   5.279
10017W        W10498   4.836   3.517   6.029
10018W        W10499   6.903   3.613   7.061
10019W        W10500   6.062   1.801   5.994
10020W        W10501   3.911   1.599   3.909
10021W        W10502   7.045   3.257   4.606
10022W        W10503   6.882   0.581   4.225
10023W        W10504   5.021   0.100   6.628
10024W        W10505   6.727   2.902   5.086
10025W        W10506   6.756   1.458   4.991
10026W        W10507   4.873   1.131   5.207
10027W        W10508   5.118   1.393   6.531
10028W        W10509   6.229   2.546   6.394
10029W        W10510   4.879   1.000   6.506
10030W        W10511   4.858   3.466   5.122
10031W        W10512   4.175   3.425   6.756
10032W        W10513   4.287   2.786   3.886
10033W        W10514   6.804   2.544   4.696
10034W        W10515   4.408   1.336   6.582
10035W        W10516   7.181   1.266   4.063
10036W        W10517   4.926   2.323   4.534
10037W        W10518   6.025   1.705   6.615
10038W        W10519   5.916   1.333   6.159
10039W        W10520   4.476   1.705   6.188
10040W        W10521   6.686   3.593   6.017
10041W        W10522   6.477   0.227   7.011
10042W        W10523   4.141   0.377   6.598
10043W        W10524   4.480   1.400   5.651
10044W        W10525   4.849   1.214   3.773
10045W        W10526   3.652   2.973   6.318
10046W        W10527   5.237   1.682   5.761
10047W        W10528   5.060   0.707   3.866
10048W        W10529   4.195   1.523   4.647
10049W        W10530   3.966   3.375   6.084
10050W        W10531   6.761   1.601   4.192
10051W        W10532   6.856   0.517   6.878
10052W        W10533   6.292   2.726   4.841
10053W        W10534   3.890   1.650   7.018
10054W        W10535   6.856   0.114   4.314
10055W        W10536   6.376   2.589   4.325
10056W        W10537   5.278   1.647   4.410
10057W        W10538   6.465   0.451   3.933
10058W        W10539   6.530   1.058   6.119
10059W        W10540   4.239   1.651   5.326
10060W        W10541   4.533   2.590   4.975
10061W        W10542   6.296   1.210   4.940
10062W        W10543   5.319   0.589   5.636
10063W        W10544   7.281   2.500   6.147
10064W        W10545   7.199   0.487   5.708
10065W        W10546   3.738   3.317   5.084
10066W        W10547   4.247   2.504   4.620
10067W        W10548   4.162   0.121   7.173
10068W        W10549   5.281   2.974   7.275
10069W        W10550   7.036   1.942   5.065
10070W        W10551   6.390   2.119   3.945
10071W        W10552   5.685   3.640   6.157
10072W        W10553   6.542   2.362   7.194
10073W        W10554   5.357   0.072   4.474
10074W        W10555   6.070   0.941   5.333
10075W        W10556   3.756   2.528   5.665
10076W        W10557   5.009   0.490   4.306
10077W        W10558   4.813   1.974   7.155
10078W        W10559   5.807   0.955   4.869
10079W        W10560   6.012   2.365   5.991
10080W        W10561   4.166   2.970   6.426
10081W        W10562   4.757   2.953   7.149
10082W        W10563   4.608   0.750   4.163
10083W        W10564   6.125   0.892   4.488
10084W        W10565   4.768   1.592   5.324
10085W        W10566   4.423   3.290   6.189
10086W        W10567   7.168   3.407   3.790
10087W        W10568   4.031   2.079   6.786
10088W        W10569   6.026   2.341   5.474
10089W        W10570   4.462   1.990   4.716
10090W        W10571   4.833   2.997   6.111
10091W        W10572   5.211   0.416   5.152
10092W        W10573   3.822   2.400   4.082
10093W        W10574   5.341   1.351   3.952
10094W        W10575   3.987   1.900   4.971
10095W        W10576   5.277   0.542   6.435
10096W        W10577   6.949   0.251   3.862
10097W        W10578   7.042   1.997   6.961
10098W        W10579   5.696   3.254   7.113
10099W        W10580   7.254   2.348   6.635
10100W        W10581   6.662   3.146   7.246
10101W        W10582   4.401   3.602   5.724
10102W        W10583   7.260   2.224   4.598
10103W        W10584   5.790   1.491   5.111
10104W        W10585   5.557   0.103   5.001
10105W        W10586   4.616   3.087   4.838
10106W        W10587   5.115   0.828   6.063
10107W        W10588   4.815   0.197   5.532
10108W        W10589   3.878   3.019   4.080
10109W        W10590   5.694   2.383   4.798
10110W        W10591   4.569   3.178   6.677
10111W        W10592   4.046   2.001   4.373
10112W        W10593   3.931   0.544   5.372
10113W        W10594   5.479   2.509   5.429
10114W        W10595   3.731   0.363   4.449
10115W        W10596   6.395   1.569   6.376
10116W        W10597   6.272   0.955   3.948
10117W        W10598   6.789   2.627   5.596
10118W        W10599   5.450   3.111   5.427
10119W        W10600   4.862   3.215   4.338
10120W        W10601   6.144   0.118   3.768
10121W        W10602   3.944   3.378   5.509
10122W        W10603   6.141   1.136   7.144
10123W        W10604   4.124   0.666   7.143
10124W        W10605   3.855   1.266   4.476
10125W        W10606   4.546   1.255   4.201
10126W        W10607   6.309   1.582   7.018
10127W        W10608   4.652   1.863   5.727
10128W        W10609   6.126   0.149   4.847
10129W        W10610   5.257   3.580   5.350
10130W        W10611   6.471   3.042   6.287
10131W        W10612   6.055   3.191   5.398
10132W        W10613   6.074   2.171   4.992
10133W        W10614   5.536   0.396   4.063
10134W        W10615   7.217   0.024   4.785
10135W        W10616   4.905   1.659   3.948
10136W        W10617   7.071   0.996   4.938
10137W        W10618   5.763   2.166   3.815
10138W        W10619   6.699   2.366   6.563
10139W        W10620   6.353   3.067   4.030
10140W        W10621   4.968   0.742   6.936
10141W        W10622   4.788   1.326   6.177
10142W        W10623   6.880   2.821   6.454
10143W        W10624   5.980   0.771   6.831
10144W        W10625   3.824   1.242   6.608
10145W        W10626   5.584   1.719   6.334
10146W        W10627   3.941   2.477   4.991
10147W        W10628   4.088   1.774   5.881
10148W        W10629   6.405   2.060   6.231
10149W        W10630   6.177   3.440   7.042
10150W        W10631   6.073   1.179   6.595
10151W        W10632   6.350   3.233   5.000
10152W        W10633   4.837   3.308   5.592
10153W        W10634   6.642   2.479   6.011
10154W        W10635   5.692   2.551   7.148
10155W        W10636   4.297   2.504   5.487
10156W        W10637   6.643   2.263   5.132
10157W        W10638   6.284   3.329   5.883
10158W        W10639   4.262   3.058   5.753
10159W        W10640   5.283   1.110   6.963
10160W        W10641   5.734   3.276   4.474
10161W        W10642   5.042   2.531   7.112
10162W        W10643   5.168   2.769   4.489
10163W        W10644   4.389   1.509   3.748
10164W        W10645   3.728   3.595  10.648
10165W        W10646   4.104   2.488  10.171
10166W        W10647   6.809   2.218   7.941
10167W        W10648   6.939   3.303   9.968
10168W        W10649   4.857   3.294   7.494
10169W        W10650   4.940   1.446   8.477
10170W        W10651   4.455   1.294   8.641
10171W        W10652   5.446   2.109   8.075
10172W        W10653   5.121   3.201  10.430
10173W        W10654   3.770   0.762  10.393
10174W        W10655   4.532   0.042  10.195
10175W        W10656   6.226   0.430   9.082
10176W        W10657   6.445   0.735  10.743
10177W        W10658   3.811   0.527   9.868
10178W        W10659   3.910   3.146  10.889
10179W        W10660   5.432   2.536   7.621
10180W        W10661   3.864   1.319   9.314
10181W        W10662   4.757   1.210  10.551
10182W        W10663   7.216   1.069   9.050
10183W        W10664   6.980   2.112   9.909
10184W        W10665   5.288   1.445   8.936
10185W        W10666   5.834   2.784   9.305
10186W        W10667   4.334   2.218   9.537
10187W        W10668   3.693   1.746   9.108
10188W        W10669   4.729   1.718  10.300
10189W        W10670   7.000   1.501  10.554
10190W        W10671   4.616   2.945   8.999
10191W        W10672   5.737   2.634  10.133
10192W        W10673   4.957   1.274   9.358
10193W        W10674   5.249   2.058   9.001
10194W        W10675   6.246   2.831  10.849
10195W        W10676   5.325   2.151  10.859
10196W        W10677   5.306   1.867  10.337
10197W        W10678   3.715   1.258  10.859
10198W        W10679   6.547   2.793  10.458
10199W        W10680   4.128   0.375   8.456
10200W        W10681   4.655   2.633   9.455
10201W        W10682   7.118   2.416   8.745
10202W        W10683   6.531   0.816   9.312
10203W        W10684   6.816   0.769   7.407
10204W        W10685   7.281   1.570   9.713
10205W        W10686   5.248   3.277   9.466
10206W        W10687   7.022   2.743   7.904
10207W        W10688   4.151   3.529   7.658
10208W        W10689   4.544   3.575   8.334
10209W        W10690   4.341   0.329   9.760
10210W        W10691   6.964   1.347  10.035
10211W        W10692   6.369   1.769   8.494
10212W        W10693   6.335   1.457   7.521
10213W        W10694   5.543   2.601   9.661
10214W        W10695   5.349   0.931   8.860
10215W        W10696   5.949   3.018   9.854
10216W        W10697   6.820   1.809   8.276
10217W        W10698   5.722   0.467   8.292
10218W        W10699   4.379   3.161   7.975
10219W        W10700   3.750   0.660   8.574
10220W        W10701   6.536   1.267   9.048
10221W        W10702   3.994   2.884   8.963
10222W        W10703   5.335   3.234   7.833
10223W        W10704   6.727   1.260   7.297
10224W        W10705   3.750   3.018   9.461
10225W        W10706   4.541   2.590   9.941
10226W        W10707   4.914   1.950   8.560
10227W        W10708   4.936   0.355   9.653
10228W        W10709   7.165   0.117   8.950
10229W        W10710   4.384   1.989   7.418
10230W        W10711   4.039   1.022   7.597
10231W        W10712   4.101   2.978   8.391
10232W        W10713   5.232   2.461   8.639
10233W        W10714   6.564   3.320  10.353
10234W        W10715   5.490   0.962   8.037
10235W        W10716   6.873   3.360   8.809
10236W        W10717   6.550   1.213  10.407
10237W        W10718   7.263   2.869   8.541
10238W        W10719   5.890   2.161  10.025
10239W        W10720   3.656   1.712   8.231
10240W        W10721   4.767   2.127   9.804
10241W        W10722   5.971   1.391   8.182
10242W        W10723   4.191   1.301   9.760
10243W        W10724   4.176   1.177  10.682
10244W        W10725   4.066   0.094   8.841
10245W        W10726   5.834   0.441   9.402
10246W        W10727   5.482   0.626  10.565
10247W        W10728   5.837   0.775   7.743
10248W        W10729   7.020   3.168  10.497
10249W        W10730   5.987   0.249  10.536
10250W        W10731   7.006   2.550  10.658
10251W        W10732   6.436   0.717  10.254
10252W        W10733   6.236   0.655   8.524
10253W        W10734   6.629   1.789  10.928
10254W        W10735   4.369   3.365   8.914
10255W        W10736   5.027   1.082   7.900
10256W        W10737   4.596   0.366  10.564
10257W        W10738   6.648   0.850   8.245
10258W        W10739   7.015   1.332   8.190
10259W        W10740   4.758   3.549  10.661
10260W        W10741   4.684   0.085   7.896
10261W        W10742   7.005   0.619   8.931
10262W        W10743   7.155   2.868   7.376
10263W        W10744   4.062   2.071   9.078
10264W        W10745   5.979   0.658   7.308
10265W        W10746   7.113   2.990   9.028
10266W        W10747   7.152   0.184   9.778
10267W        W10748   5.597   1.396  10.332
10268W        W10749   5.690   2.735   8.035
10269W        W10750   6.090   2.029  10.775
10270W        W10751   5.764   0.006   9.084
10271W        W10752   4.376   0.909   9.147
10272W        W10753   3.930   2.109   9.921
10273W        W10754   5.789   3.302   8.627
10274W        W10755   6.983   0.899   9.499
10275W        W10756   5.620   3.246  10.266
10276W        W10757   6.963   2.305   7.471
10277W        W10758   5.398   1.788   8.532
10278W        W10759   7.250   0.299  10.273
10279W        W10760   5.399   2.134   9.867
10280W        W10761   5.616   1.020   9.312
10281W        W10762   6.468   1.318   8.150
10282W        W10763   6.564   3.091   8.181
10283W        W10764   6.398   2.694   8.977
10284W        W10765   6.294   1.773   7.955
10285W        W10766   5.727   1.983   8.941
10286W        W10767   6.608   1.771   9.008
10287W        W10768   3.983   0.786   9.432
10288W        W10769   6.761   1.838  10.259
10289W        W10770   7.112   3.456   9.405
10290W        W10771   5.042   2.900   8.807
10291W        W10772   6.049   3.433  10.131
10292W        W10773   6.043   0.763   9.895
10293W        W10774   5.250   3.471   9.956
10294W        W10775   6.947   0.425   8.422
10295W        W10776   6.738   1.744   9.723
10296W        W10777   3.721   1.065   9.761
10297W        W10778   6.581   0.860   8.779
10298W        W10779   6.992   1.011  10.556
10299W        W10780   5.877   2.710   8.774
10300W        W10781   5.133   3.301   8.387
10301W        W10782   4.248   0.481   7.645
10302W        W10783   5.352   0.135   9.455
10303W        W10784   4.380   3.255   7.303
10304W        W10785   4.754   1.721   8.054
10305W        W10786   5.408   2.350  10.367
10306W        W10787   5.238   0.708   8.357
10307W        W10788   6.594   0.305   8.785
10308W        W10789   6.314   3.587   9.113
10309W        W10790   5.726   3.235   9.453
10310W        W10791   5.122   2.272   9.414
10311W        W10792   6.892   2.995   9.540
10312W        W10793   4.586   0.498   8.309
10313W        W10794   5.108   2.795   9.269
10314W        W10795   4.591   0.726   7.334
10315W        W10796   5.392   1.335   9.728
10316W        W10797   6.240   0.201   9.598
10317W        W10798   3.660   2.044   9.483
10318W        W10799   5.364   1.862   7.641
10319W        W10800   4.632   0.177   7.411
10320W        W10801   5.370   1.258   8.462
10321W        W10802   6.340   0.234  10.161
10322W        W10803   4.928   2.246  10.270
10323W        W10804   5.732   2.028  10.487
10324W        W10805   6.349   2.058  10.380
10325W        W10806   5.633   0.198  10.885
10326W        W10807   4.855   0.814   9.278
10327W        W10808   4.281   0.770   8.676
10328W        W10809   4.067   3.482   8.352
10329W        W10810   5.399   2.812  10.477
10330W        W10811   4.434   2.297   7.836
10331W        W10812   6.114   1.682   9.057
10332W        W10813   6.394   1.481   9.456
10333W        W10814   5.599   2.155   9.390
10334W        W10815   6.069   2.529   7.522
10335W        W10816   5.741   0.550   8.850
10336W        W10817   7.220   0.828   8.118
10337W        W10818   3.714   3.417  10.149
10338W        W10819   4.131   2.643   9.681
10339W        W10820   3.698   3.489   7.913
10340W        W10821   5.597   0.759   9.719
10341W        W10822   4.960   2.782   7.568
10342W        W10823   6.865   3.164   7.754
10343W        W10824   5.840   1.817   7.768
10344W        W10825   4.683   1.008   8.285
10345W        W10826   5.515   0.918   7.337
10346W        W10827   6.099   2.483  10.515
10347W        W10828   6.452   0.389   8.132
10348W        W10829   3.782   0.237   7.580
10349W        W10830   5.068   2.556   9.870
10350W        W10831   4.867   2.472   8.962
10351W        W10832   4.609   2.424   7.360
10352W        W10833   3.850   2.665   8.128
10353W        W10834   4.354   1.735  10.570
10354W        W10835   5.058   0.295  10.756
10355W        W10836   5.767   0.437  10.112
10356W        W10837   4.962   0.205   8.393
10357W        W10838   6.021   0.282   7.898
10358W        W10839   3.966   0.214   9.475
10359W        W10840   4.014   1.177   8.845
10360W        W10841   6.703   0.285   9.251
10361W        W10842   4.125   0.783   8.065
10362W        W10843   7.092   1.674   7.366
10363W        W10844   4.384   0.432   9.185
10364W        W10845   5.498   1.004  10.125
10365W        W10846   3.646   0.694   7.603
10366W        W10847   4.432   2.083  10.164
10367W        W10848   5.790   1.481   9.343
10368W        W10849   5.657   3.560   7.639
10369W        W10850   3.803   2.067   7.336
10370W        W10851   4.538   2.478  10.462
10371W        W10852   4.059   1.645  10.093
10372W        W10853   5.050   1.750   9.887
10373W        W10854   6.818   0.109  10.149
10374W        W10855   7.216   1.719  10.140
10375W        W10856   7.204   1.919   7.826
10376W        W10857   6.067   2.251   7.925
10377W        W10858   6.541   3.551   7.620
10378W        W10859   5.718   1.541  10.762
10379W        W10860   4.048   2.508  10.802
10380W        W10861   7.254   0.430  10.754
10381W        W10862   6.972   1.358   9.375
10382W        W10863   5.280   3.488  10.852
10383W        W10864   5.135   0.117   7.579
10384W        W10865   6.674   2.716   7.522
10385W        W10866   4.443   0.809  10.408
10386W        W10867   4.877   2.803  10.270
10387W        W10868   7.003   0.794  10.068
10388W        W10869   6.214   3.453   8.036
10389W        W10870   6.453   2.072   9.403
10390W        W10871   4.703   0.488  10.070
10391W        W10872   5.172   1.557  10.827
10392W        W10873   4.675   2.736   8.021
10393W        W10874   6.430   2.234   8.285
10394W        W10875   4.198   0.860  10.009
10395W        W10876   5.527   2.922   8.473
10396W        W10877   7.277   1.482   8.654
10397W        W10878   5.499   0.115  10.373
10398W        W10879   6.279   2.820   9.452
10399W        W10880   6.582   3.164   9.160
10400W        W10881   5.801   2.966   7.588
10401W        W10882   3.811   2.858  10.430
10402W        W10883   4.554   0.850   9.668
10403W        W10884   4.524   0.198   8.778
10404W        W10885   6.145   1.040   9.470
10405W        W10886   4.943   2.211   7.670
10406W        W10887   6.941   2.153   9.169
10407W        W10888   4.268   2.911  10.592
10408W        W10889   6.655   3.593   8.389
10409W        W10890   4.754   0.613   8.834
10410W        W10891   4.523   2.106   8.924
10411W        W10892   4.836   3.517   9.674
10412W        W10893   6.903   3.613  10.706
10413W        W10894   6.062   1.801   9.639
10414W        W10895   3.911   1.599   7.554
10415W        W10896   7.045   3.257   8.251
10416W        W10897   6.882   0.581   7.870
10417W        W10898   5.021   0.100  10.273
10418W        W10899   6.727   2.902   8.731
10419W        W10900   6.756   1.458   8.636
10420W        W10901   4.873   1.131   8.852
10421W        W10902   5.118   1.393  10.176
10422W        W10903   6.229   2.546  10.039
10423W        W10904   4.879   1.000  10.151
10424W        W10905   4.858   3.466   8.767
10425W        W10906   4.175   3.425  10.401
10426W        W10907   4.287   2.786   7.531
10427W        W10908   6.804   2.544   8.341
10428W        W10909   4.408   1.336  10.227
10429W        W10910   7.181   1.266   7.708
10430W        W10911   4.926   2.323   8.179
10431W        W10912   6.025   1.705  10.260
10432W        W10913   5.916   1.333   9.804
10433W        W10914   4.476   1.705   9.833
10434W        W10915   6.686   3.593   9.662
10435W        W10916   6.477   0.227  10.656
10436W        W10917   4.141   0.377  10.243
10437W        W10918   4.480   1.400   9.296
10438W        W10919   4.849   1.214   7.418
10439W        W10920   3.652   2.973   9.963
10440W        W10921   5.237   1.682   9.406
10441W        W10922   5.060   0.707   7.511
10442W        W10923   4.195   1.523   8.292
10443W        W10924   3.966   3.375   9.729
10444W        W10925   6.761   1.601   7.837
10445W        W10926   6.856   0.517  10.523
10446W        W10927   6.292   2.726   8.486
10447W        W10928   3.890   1.650  10.663
10448W        W10929   6.856   0.114   7.959
10449W        W10930   6.376   2.589   7.970
10450W        W10931   5.278   1.647   8.055
10451W        W10932   6.465   0.451   7.578
10452W        W10933   6.530   1.058   9.764
10453W        W10934   4.239   1.651   8.971
10454W        W10935   4.533   2.590   8.620
10455W        W10936   6.296   1.210   8.585
10456W        W10937   5.319   0.589   9.281
10457W        W10938   7.281   2.500   9.792
10458W        W10939   7.199   0.487   9.353
10459W        W10940   3.738   3.317   8.729
10460W        W10941   4.247   2.504   8.265
10461W        W10942   4.162   0.121  10.818
10462W        W10943   5.281   2.974  10.920
10463W        W10944   7.036   1.942   8.710
10464W        W10945   6.390   2.119   7.590
10465W        W10946   5.685   3.640   9.802
10466W        W10947   6.542   2.362  10.839
10467W        W10948   5.357   0.072   8.119
10468W        W10949   6.070   0.941   8.978
10469W        W10950   3.756   2.528   9.310
10470W        W10951   5.009   0.490   7.951
10471W        W10952   4.813   1.974  10.800
10472W        W10953   5.807   0.955   8.514
10473W        W10954   6.012   2.365   9.636
10474W        W10955   4.166   2.970  10.071
10475W        W10956   4.757   2.953  10.794
10476W        W10957   4.608   0.750   7.808
10477W        W10958   6.125   0.892   8.133
10478W        W10959   6.083   3.000  10.370
10479W        W10960   4.768   1.592   8.969
10480W        W10961   4.423   3.290   9.834
10481W        W10962   7.168   3.407   7.435
10482W        W10963   4.031   2.079  10.431
10483W        W10964   6.026   2.341   9.119
10484W        W10965   4.462   1.990   8.361
10485W        W10966   4.833   2.997   9.756
10486W        W10967   5.211   0.416   8.797
10487W        W10968   3.822   2.400   7.727
10488W        W10969   5.341   1.351   7.597
10489W        W10970   3.987   1.900   8.616
10490W        W10971   5.277   0.542  10.080
10491W        W10972   6.949   0.251   7.507
10492W        W10973   7.042   1.997  10.606
10493W        W10974   5.696   3.254  10.758
10494W        W10975   7.254   2.348  10.280
10495W        W10976   6.662   3.146  10.891
10496W        W10977   4.401   3.602   9.369
10497W        W10978   7.260   2.224   8.243
10498W        W10979   5.790   1.491   8.756
10499W        W10980   5.557   0.103   8.646
10500W        W10981   4.616   3.087   8.483
10501W        W10982   5.115   0.828   9.708
10502W        W10983   4.815   0.197   9.177
10503W        W10984   3.878   3.019   7.725
10504W        W10985   5.694   2.383   8.443
10505W        W10986   4.569   3.178  10.322
10506W        W10987   4.046   2.001   8.018
10507W        W10988   3.931   0.544   9.017
10508W        W10989   5.479   2.509   9.074
10509W        W10990   3.731   0.363   8.094
10510W        W10991   6.395   1.569  10.021
10511W        W10992   6.272   0.955   7.593
10512W        W10993   6.789   2.627   9.241
10513W        W10994   5.450   3.111   9.072
10514W        W10995   4.862   3.215   7.983
10515W        W10996   6.144   0.118   7.413
10516W        W10997   3.944   3.378   9.154
10517W        W10998   6.141   1.136  10.789
10518W        W10999   4.124   0.666  10.788
10519W        W11000   3.855   1.266   8.121
10520W        W11001   4.546   1.255   7.846
10521W        W11002   6.309   1.582  10.663
10522W        W11003   4.652   1.863   9.372
10523W        W11004   6.126   0.149   8.492
10524W        W11005   5.257   3.580   8.995
10525W        W11006   6.471   3.042   9.932
10526W        W11007   6.055   3.191   9.043
10527W        W11008   6.074   2.171   8.637
10528W        W11009   5.536   0.396   7.708
10529W        W11010   7.217   0.024   8.430
10530W        W11011   4.905   1.659   7.593
10531W        W11012   7.071   0.996   8.583
10532W        W11013   5.763   2.166   7.460
10533W        W11014   6.699   2.366  10.208
10534W        W11015   6.353   3.067   7.675
10535W        W11016   4.968   0.742  10.581
10536W        W11017   4.788   1.326   9.822
10537W        W11018   6.880   2.821  10.099
10538W        W11019   5.980   0.771  10.476
10539W        W11020   3.824   1.242  10.253
10540W        W11021   5.584   1.719   9.979
10541W        W11022   3.941   2.477   8.636
10542W        W11023   4.088   1.774   9.526
10543W        W11024   6.177   3.440  10.687
10544W        W11025   6.073   1.179  10.240
10545W        W11026   6.350   3.233   8.645
10546W        W11027   5.352   2.953   9.968
10547W        W11028   4.837   3.308   9.237
10548W        W11029   6.642   2.479   9.656
10549W        W11030   5.692   2.551  10.793
10550W        W11031   4.297   2.504   9.132
10551W        W11032   6.643   2.263   8.777
10552W        W11033   6.284   3.329   9.528
10553W        W11034   4.262   3.058   9.398
10554W        W11035   5.283   1.110  10.608
10555W        W11036   5.734   3.276   8.119
10556W        W11037   5.042   2.531  10.757
10557W        W11038   5.168   2.769   8.134
10558W        W11039   4.389   1.509   7.393
10559W        W11040   3.728   3.595  14.292
10560W        W11041   4.104   2.488  13.815
10561W        W11042   6.809   2.218  11.585
10562W        W11043   6.939   3.303  13.612
10563W        W11044   4.857   3.294  11.138
10564W        W11045   4.940   1.446  12.121
10565W        W11046   4.455   1.294  12.285
10566W        W11047   5.446   2.109  11.719
10567W        W11048   5.121   3.201  14.074
10568W        W11049   3.770   0.762  14.037
10569W        W11050   4.532   0.042  13.839
10570W        W11051   6.226   0.430  12.726
10571W        W11052   5.875   1.301  11.296
10572W        W11053   6.445   0.735  14.387
10573W        W11054   3.811   0.527  13.512
10574W        W11055   3.910   3.146  14.533
10575W        W11056   5.432   2.536  11.265
10576W        W11057   3.864   1.319  12.958
10577W        W11058   4.757   1.210  14.195
10578W        W11059   7.216   1.069  12.694
10579W        W11060   6.980   2.112  13.553
10580W        W11061   5.288   1.445  12.580
10581W        W11062   5.834   2.784  12.949
10582W        W11063   4.334   2.218  13.181
10583W        W11064   3.693   1.746  12.752
10584W        W11065   4.729   1.718  13.944
10585W        W11066   7.000   1.501  14.198
10586W        W11067   4.616   2.945  12.643
10587W        W11068   5.737   2.634  13.777
10588W        W11069   4.957   1.274  13.002
10589W        W11070   5.249   2.058  12.645
10590W        W11071   6.246   2.831  14.493
10591W        W11072   5.325   2.151  14.503
10592W        W11073   5.306   1.867  13.981
10593W        W11074   3.715   1.258  14.503
10594W        W11075   6.547   2.793  14.102
10595W        W11076   4.128   0.375  12.100
10596W        W11077   4.655   2.633  13.099
10597W        W11078   7.118   2.416  12.389
10598W        W11079   6.531   0.816  12.956
10599W        W11080   6.816   0.769  11.051
10600W        W11081   7.281   1.570  13.357
10601W        W11082   5.248   3.277  13.110
10602W        W11083   7.022   2.743  11.548
10603W        W11084   4.151   3.529  11.302
10604W        W11085   4.544   3.575  11.978
10605W        W11086   4.341   0.329  13.404
10606W        W11087   6.964   1.347  13.679
10607W        W11088   6.369   1.769  12.138
10608W        W11089   6.335   1.457  11.165
10609W        W11090   5.543   2.601  13.305
10610W        W11091   5.349   0.931  12.504
10611W        W11092   5.949   3.018  13.498
10612W        W11093   6.820   1.809  11.920
10613W        W11094   5.722   0.467  11.936
10614W        W11095   4.379   3.161  11.619
10615W        W11096   3.750   0.660  12.218
10616W        W11097   6.536   1.267  12.692
10617W        W11098   3.994   2.884  12.607
10618W        W11099   5.335   3.234  11.477
10619W        W11100   6.727   1.260  10.941
10620W        W11101   3.750   3.018  13.105
10621W        W11102   4.541   2.590  13.585
10622W        W11103   4.914   1.950  12.204
10623W        W11104   4.936   0.355  13.297
10624W        W11105   7.165   0.117  12.594
10625W        W11106   4.384   1.989  11.062
10626W        W11107   4.039   1.022  11.241
10627W        W11108   4.101   2.978  12.035
10628W        W11109   5.232   2.461  12.283
10629W        W11110   6.564   3.320  13.997
10630W        W11111   5.490   0.962  11.681
10631W        W11112   6.873   3.360  12.453
10632W        W11113   6.550   1.213  14.051
10633W        W11114   7.263   2.869  12.185
10634W        W11115   5.890   2.161  13.669
10635W        W11116   3.656   1.712  11.875
10636W        W11117   4.767   2.127  13.448
10637W        W11118   5.971   1.391  11.826
10638W        W11119   5.848   1.881  11.930
10639W        W11120   4.191   1.301  13.404
10640W        W11121   4.176   1.177  14.326
10641W        W11122   4.066   0.094  12.485
10642W        W11123   5.834   0.441  13.046
10643W        W11124   5.482   0.626  14.209
10644W        W11125   5.837   0.775  11.387
10645W        W11126   7.020   3.168  14.141
10646W        W11127   5.987   0.249  14.180
10647W        W11128   7.006   2.550  14.302
10648W        W11129   6.436   0.717  13.898
10649W        W11130   6.236   0.655  12.168
10650W        W11131   6.629   1.789  14.572
10651W        W11132   4.369   3.365  12.558
10652W        W11133   5.027   1.082  11.544
10653W        W11134   4.596   0.366  14.208
10654W        W11135   6.648   0.850  11.889
10655W        W11136   7.015   1.332  11.834
10656W        W11137   4.758   3.549  14.305
10657W        W11138   4.684   0.085  11.540
10658W        W11139   7.005   0.619  12.575
10659W        W11140   7.155   2.868  11.020
10660W        W11141   4.062   2.071  12.722
10661W        W11142   5.979   0.658  10.952
10662W        W11143   7.113   2.990  12.672
10663W        W11144   7.152   0.184  13.422
10664W        W11145   5.597   1.396  13.976
10665W        W11146   5.690   2.735  11.679
10666W        W11147   6.090   2.029  14.419
10667W        W11148   5.764   0.006  12.728
10668W        W11149   4.376   0.909  12.791
10669W        W11150   3.930   2.109  13.565
10670W        W11151   5.789   3.302  12.271
10671W        W11152   6.983   0.899  13.143
10672W        W11153   5.620   3.246  13.910
10673W        W11154   6.963   2.305  11.115
10674W        W11155   5.398   1.788  12.176
10675W        W11156   7.250   0.299  13.917
10676W        W11157   5.399   2.134  13.511
10677W        W11158   5.616   1.020  12.956
10678W        W11159   6.468   1.318  11.794
10679W        W11160   6.755   1.051  11.436
10680W        W11161   6.564   3.091  11.825
10681W        W11162   6.398   2.694  12.621
10682W        W11163   6.294   1.773  11.599
10683W        W11164   5.727   1.983  12.585
10684W        W11165   6.608   1.771  12.652
10685W        W11166   3.983   0.786  13.076
10686W        W11167   7.112   3.456  13.049
10687W        W11168   5.042   2.900  12.451
10688W        W11169   6.049   3.433  13.775
10689W        W11170   6.043   0.763  13.539
10690W        W11171   5.250   3.471  13.600
10691W        W11172   6.947   0.425  12.066
10692W        W11173   6.738   1.744  13.367
10693W        W11174   3.721   1.065  13.405
10694W        W11175   6.581   0.860  12.423
10695W        W11176   6.992   1.011  14.200
10696W        W11177   5.877   2.710  12.418
10697W        W11178   5.133   3.301  12.031
10698W        W11179   4.248   0.481  11.289
10699W        W11180   5.352   0.135  13.099
10700W        W11181   4.380   3.255  10.947
10701W        W11182   4.754   1.721  11.698
10702W        W11183   5.408   2.350  14.011
10703W        W11184   5.238   0.708  12.001
10704W        W11185   6.594   0.305  12.429
10705W        W11186   6.314   3.587  12.757
10706W        W11187   5.726   3.235  13.097
10707W        W11188   5.122   2.272  13.058
10708W        W11189   6.892   2.995  13.184
10709W        W11190   4.586   0.498  11.953
10710W        W11191   5.108   2.795  12.913
10711W        W11192   4.591   0.726  10.978
10712W        W11193   5.392   1.335  13.372
10713W        W11194   6.240   0.201  13.242
10714W        W11195   3.660   2.044  13.127
10715W        W11196   5.364   1.862  11.285
10716W        W11197   4.632   0.177  11.055
10717W        W11198   5.370   1.258  12.106
10718W        W11199   6.340   0.234  13.805
10719W        W11200   4.928   2.246  13.914
10720W        W11201   5.732   2.028  14.131
10721W        W11202   5.633   0.198  14.529
10722W        W11203   4.855   0.814  12.922
10723W        W11204   4.281   0.770  12.320
10724W        W11205   4.067   3.482  11.996
10725W        W11206   5.399   2.812  14.121
10726W        W11207   4.434   2.297  11.480
10727W        W11208   6.114   1.682  12.701
10728W        W11209   6.394   1.481  13.100
10729W        W11210   5.599   2.155  13.034
10730W        W11211   6.069   2.529  11.166
10731W        W11212   5.741   0.550  12.494
10732W        W11213   7.220   0.828  11.762
10733W        W11214   3.714   3.417  13.793
10734W        W11215   4.131   2.643  13.325
10735W        W11216   3.698   3.489  11.557
10736W        W11217   5.597   0.759  13.363
10737W        W11218   4.960   2.782  11.212
10738W        W11219   6.865   3.164  11.398
10739W        W11220   5.840   1.817  11.412
10740W        W11221   4.683   1.008  11.929
10741W        W11222   5.515   0.918  10.981
10742W        W11223   6.099   2.483  14.159
10743W        W11224   6.452   0.389  11.776
10744W        W11225   3.782   0.237  11.224
10745W        W11226   5.068   2.556  13.514
10746W        W11227   4.867   2.472  12.606
10747W        W11228   4.609   2.424  11.004
10748W        W11229   3.850   2.665  11.772
10749W        W11230   4.354   1.735  14.214
10750W        W11231   5.058   0.295  14.400
10751W        W11232   5.767   0.437  13.756
10752W        W11233   4.962   0.205  12.037
10753W        W11234   6.021   0.282  11.542
10754W        W11235   3.966   0.214  13.119
10755W        W11236   4.014   1.177  12.489
10756W        W11237   6.703   0.285  12.895
10757W        W11238   4.125   0.783  11.709
10758W        W11239   6.696   0.471  13.325
10759W        W11240   7.092   1.674  11.010
10760W        W11241   4.384   0.432  12.829
10761W        W11242   5.498   1.004  13.769
10762W        W11243   3.646   0.694  11.247
10763W        W11244   4.432   2.083  13.808
10764W        W11245   5.790   1.481  12.987
10765W        W11246   5.657   3.560  11.283
10766W        W11247   3.803   2.067  10.980
10767W        W11248   4.538   2.478  14.106
10768W        W11249   4.059   1.645  13.737
10769W        W11250   5.050   1.750  13.531
10770W        W11251   6.818   0.109  13.793
10771W        W11252   7.216   1.719  13.784
10772W        W11253   7.204   1.919  11.470
10773W        W11254   6.067   2.251  11.569
10774W        W11255   6.541   3.551  11.264
10775W        W11256   5.718   1.541  14.406
10776W        W11257   4.048   2.508  14.446
10777W        W11258   7.254   0.430  14.398
10778W        W11259   6.972   1.358  13.019
10779W        W11260   5.280   3.488  14.496
10780W        W11261   5.135   0.117  11.223
10781W        W11262   6.674   2.716  11.166
10782W        W11263   4.443   0.809  14.052
10783W        W11264   4.877   2.803  13.914
10784W        W11265   7.003   0.794  13.712
10785W        W11266   6.214   3.453  11.680
10786W        W11267   6.453   2.072  13.047
10787W        W11268   4.703   0.488  13.714
10788W        W11269   5.172   1.557  14.471
10789W        W11270   4.675   2.736  11.665
10790W        W11271   6.430   2.234  11.929
10791W        W11272   4.198   0.860  13.653
10792W        W11273   5.527   2.922  12.117
10793W        W11274   7.277   1.482  12.298
10794W        W11275   5.499   0.115  14.017
10795W        W11276   6.279   2.820  13.096
10796W        W11277   6.582   3.164  12.804
10797W        W11278   5.801   2.966  11.232
10798W        W11279   3.811   2.858  14.074
10799W        W11280   4.554   0.850  13.312
10800W        W11281   4.524   0.198  12.422
10801W        W11282   6.145   1.040  13.114
10802W        W11283   4.943   2.211  11.314
10803W        W11284   6.941   2.153  12.813
10804W        W11285   4.268   2.911  14.236
10805W        W11286   6.655   3.593  12.033
10806W        W11287   4.754   0.613  12.478
10807W        W11288   4.523   2.106  12.568
10808W        W11289   4.836   3.517  13.318
10809W        W11290   6.903   3.613  14.350
10810W        W11291   6.062   1.801  13.283
10811W        W11292   3.911   1.599  11.198
10812W        W11293   7.045   3.257  11.895
10813W        W11294   6.882   0.581  11.514
10814W        W11295   5.021   0.100  13.917
10815W        W11296   6.727   2.902  12.375
10816W        W11297   6.756   1.458  12.280
10817W        W11298   4.873   1.131  12.496
10818W        W11299   5.118   1.393  13.820
10819W        W11300   6.229   2.546  13.683
10820W        W11301   4.879   1.000  13.795
10821W        W11302   4.858   3.466  12.411
10822W        W11303   4.175   3.425  14.045
10823W        W11304   4.287   2.786  11.175
10824W        W11305   6.804   2.544  11.985
10825W        W11306   4.408   1.336  13.871
10826W        W11307   7.181   1.266  11.352
10827W        W11308   4.926   2.323  11.823
10828W        W11309   6.025   1.705  13.904
10829W        W11310   5.916   1.333  13.448
10830W        W11311   4.476   1.705  13.477
10831W        W11312   6.686   3.593  13.306
10832W        W11313   6.477   0.227  14.300
10833W        W11314   4.141   0.377  13.887
10834W        W11315   4.480   1.400  12.940
10835W        W11316   4.849   1.214  11.062
10836W        W11317   3.652   2.973  13.607
10837W        W11318   5.237   1.682  13.050
10838W        W11319   5.060   0.707  11.155
10839W        W11320   4.195   1.523  11.936
10840W        W11321   3.966   3.375  13.373
10841W        W11322   6.761   1.601  11.481
10842W        W11323   6.856   0.517  14.167
10843W        W11324   6.292   2.726  12.130
10844W        W11325   3.890   1.650  14.307
10845W        W11326   6.856   0.114  11.603
10846W        W11327   6.376   2.589  11.614
10847W        W11328   5.278   1.647  11.699
10848W        W11329   6.465   0.451  11.222
10849W        W11330   6.530   1.058  13.408
10850W        W11331   4.239   1.651  12.615
10851W        W11332   4.533   2.590  12.264
10852W        W11333   6.296   1.210  12.229
10853W        W11334   5.319   0.589  12.925
10854W        W11335   7.281   2.500  13.436
10855W        W11336   7.199   0.487  12.997
10856W        W11337   3.738   3.317  12.373
10857W        W11338   4.247   2.504  11.909
10858W        W11339   4.162   0.121  14.462
10859W        W11340   5.281   2.974  14.564
10860W        W11341   7.036   1.942  12.354
10861W        W11342   5.685   3.640  13.446
10862W        W11343   6.542   2.362  14.483
10863W        W11344   5.357   0.072  11.763
10864W        W11345   6.070   0.941  12.622
10865W        W11346   3.756   2.528  12.954
10866W        W11347   5.009   0.490  11.595
10867W        W11348   4.813   1.974  14.444
10868W        W11349   5.807   0.955  12.158
10869W        W11350   6.012   2.365  13.280
10870W        W11351   4.166   2.970  13.715
10871W        W11352   4.757   2.953  14.438
10872W        W11353   6.125   0.892  11.777
10873W        W11354   6.083   3.000  14.014
10874W        W11355   4.768   1.592  12.613
10875W        W11356   4.423   3.290  13.478
10876W        W11357   7.168   3.407  11.079
10877W        W11358   4.031   2.079  14.075
10878W        W11359   6.026   2.341  12.763
10879W        W11360   4.462   1.990  12.005
10880W        W11361   4.833   2.997  13.400
10881W        W11362   5.211   0.416  12.441
10882W        W11363   3.822   2.400  11.371
10883W        W11364   5.341   1.351  11.241
10884W        W11365   3.987   1.900  12.260
10885W        W11366   5.277   0.542  13.724
10886W        W11367   6.949   0.251  11.151
10887W        W11368   7.042   1.997  14.250
10888W        W11369   5.696   3.254  14.402
10889W        W11370   7.254   2.348  13.924
10890W        W11371   6.662   3.146  14.535
10891W        W11372   4.401   3.602  13.013
10892W        W11373   5.790   1.491  12.400
10893W        W11374   5.557   0.103  12.290
10894W        W11375   4.616   3.087  12.127
10895W        W11376   5.115   0.828  13.352
10896W        W11377   4.815   0.197  12.821
10897W        W11378   3.878   3.019  11.369
10898W        W11379   5.694   2.383  12.087
10899W        W11380   4.569   3.178  13.966
10900W        W11381   4.046   2.001  11.662
10901W        W11382   3.931   0.544  12.661
10902W        W11383   5.479   2.509  12.718
10903W        W11384   3.731   0.363  11.738
10904W        W11385   6.395   1.569  13.665
10905W        W11386   6.272   0.955  11.237
10906W        W11387   6.789   2.627  12.885
10907W        W11388   5.450   3.111  12.716
10908W        W11389   4.862   3.215  11.627
10909W        W11390   6.144   0.118  11.057
10910W        W11391   3.944   3.378  12.798
10911W        W11392   6.141   1.136  14.433
10912W        W11393   4.124   0.666  14.432
10913W        W11394   3.855   1.266  11.765
10914W        W11395   4.546   1.255  11.490
10915W        W11396   6.309   1.582  14.307
10916W        W11397   4.652   1.863  13.016
10917W        W11398   6.126   0.149  12.136
10918W        W11399   5.257   3.580  12.639
10919W        W11400   6.471   3.042  13.576
10920W        W11401   6.055   3.191  12.687
10921W        W11402   6.074   2.171  12.281
10922W        W11403   5.536   0.396  11.352
10923W        W11404   7.217   0.024  12.074
10924W        W11405   4.905   1.659  11.237
10925W        W11406   7.071   0.996  12.227
10926W        W11407   5.763   2.166  11.104
10927W        W11408   6.699   2.366  13.852
10928W        W11409   6.353   3.067  11.319
10929W        W11410   4.968   0.742  14.225
10930W        W11411   4.788   1.326  13.466
10931W        W11412   6.880   2.821  13.743
10932W        W11413   5.980   0.771  14.120
10933W        W11414   3.824   1.242  13.897
10934W        W11415   5.584   1.719  13.623
10935W        W11416   3.941   2.477  12.280
10936W        W11417   4.088   1.774  13.170
10937W        W11418   6.405   2.060  13.520
10938W        W11419   6.177   3.440  14.331
10939W        W11420   6.073   1.179  13.884
10940W        W11421   6.350   3.233  12.289
10941W        W11422   5.352   2.953  13.612
10942W        W11423   4.837   3.308  12.881
10943W        W11424   6.642   2.479  13.300
10944W        W11425   5.692   2.551  14.437
10945W        W11426   4.297   2.504  12.776
10946W        W11427   6.643   2.263  12.421
10947W        W11428   6.284   3.329  13.172
10948W        W11429   4.262   3.058  13.042
10949W        W11430   5.283   1.110  14.252
10950W        W11431   5.734   3.276  11.763
10951W        W11432   5.042   2.531  14.401
10952W        W11433   5.168   2.769  11.778
10953W        W11434   4.389   1.509  11.037
10954W        W11435   4.104   2.488  17.459
10955W        W11436   6.809   2.218  15.229
10956W        W11437   6.939   3.303  17.256
10957W        W11438   4.857   3.294  14.782
10958W        W11439   4.940   1.446  15.765
10959W        W11440   4.455   1.294  15.929
10960W        W11441   5.446   2.109  15.363
10961W        W11442   5.121   3.201  17.718
10962W        W11443   3.770   0.762  17.681
10963W        W11444   4.532   0.042  17.483
10964W        W11445   6.226   0.430  16.370
10965W        W11446   5.875   1.301  14.940
10966W        W11447   3.811   0.527  17.156
10967W        W11448   5.432   2.536  14.909
10968W        W11449   3.864   1.319  16.602
10969W        W11450   7.216   1.069  16.338
10970W        W11451   6.980   2.112  17.197
10971W        W11452   5.288   1.445  16.224
10972W        W11453   5.834   2.784  16.593
10973W        W11454   4.334   2.218  16.825
10974W        W11455   3.693   1.746  16.396
10975W        W11456   4.729   1.718  17.588
10976W        W11457   5.737   2.634  17.421
10977W        W11458   4.957   1.274  16.646
10978W        W11459   5.249   2.058  16.289
10979W        W11460   5.306   1.867  17.625
10980W        W11461   6.547   2.793  17.746
10981W        W11462   4.128   0.375  15.744
10982W        W11463   4.655   2.633  16.743
10983W        W11464   7.118   2.416  16.033
10984W        W11465   6.531   0.816  16.600
10985W        W11466   6.816   0.769  14.695
10986W        W11467   7.281   1.570  17.001
10987W        W11468   5.248   3.277  16.754
10988W        W11469   7.022   2.743  15.192
10989W        W11470   4.151   3.529  14.946
10990W        W11471   4.544   3.575  15.622
10991W        W11472   4.341   0.329  17.048
10992W        W11473   6.964   1.347  17.323
10993W        W11474   6.369   1.769  15.782
10994W        W11475   5.543   2.601  16.949
10995W        W11476   5.349   0.931  16.148
10996W        W11477   5.949   3.018  17.142
10997W        W11478   6.820   1.809  15.564
10998W        W11479   5.722   0.467  15.580
10999W        W11480   4.379   3.161  15.263
11000W        W11481   3.750   0.660  15.862
11001W        W11482   6.536   1.267  16.336
11002W        W11483   3.994   2.884  16.251
11003W        W11484   5.335   3.234  15.121
11004W        W11485   6.727   1.260  14.585
11005W        W11486   3.750   3.018  16.749
11006W        W11487   4.541   2.590  17.229
11007W        W11488   4.914   1.950  15.848
11008W        W11489   4.936   0.355  16.941
11009W        W11490   7.165   0.117  16.238
11010W        W11491   4.384   1.989  14.706
11011W        W11492   4.039   1.022  14.885
11012W        W11493   4.101   2.978  15.679
11013W        W11494   5.232   2.461  15.927
11014W        W11495   6.564   3.320  17.641
11015W        W11496   5.490   0.962  15.325
11016W        W11497   6.873   3.360  16.097
11017W        W11498   7.263   2.869  15.829
11018W        W11499   5.890   2.161  17.313
11019W        W11500   3.656   1.712  15.519
11020W        W11501   4.767   2.127  17.092
11021W        W11502   5.971   1.391  15.470
11022W        W11503   5.848   1.881  15.574
11023W        W11504   4.191   1.301  17.048
11024W        W11505   4.066   0.094  16.129
11025W        W11506   5.834   0.441  16.690
11026W        W11507   5.837   0.775  15.031
11027W        W11508   7.020   3.168  17.785
11028W        W11509   6.436   0.717  17.542
11029W        W11510   6.236   0.655  15.812
11030W        W11511   4.369   3.365  16.202
11031W        W11512   5.027   1.082  15.188
11032W        W11513   6.648   0.850  15.533
11033W        W11514   7.015   1.332  15.478
11034W        W11515   4.684   0.085  15.184
11035W        W11516   7.005   0.619  16.219
11036W        W11517   7.155   2.868  14.664
11037W        W11518   4.062   2.071  16.366
11038W        W11519   5.979   0.658  14.596
11039W        W11520   7.113   2.990  16.316
11040W        W11521   7.152   0.184  17.066
11041W        W11522   5.597   1.396  17.620
11042W        W11523   5.690   2.735  15.323
11043W        W11524   5.764   0.006  16.372
11044W        W11525   4.376   0.909  16.435
11045W        W11526   3.930   2.109  17.209
11046W        W11527   5.789   3.302  15.915
11047W        W11528   6.983   0.899  16.787
11048W        W11529   5.620   3.246  17.554
11049W        W11530   6.963   2.305  14.759
11050W        W11531   5.398   1.788  15.820
11051W        W11532   7.250   0.299  17.561
11052W        W11533   5.399   2.134  17.155
11053W        W11534   5.616   1.020  16.600
11054W        W11535   6.468   1.318  15.438
11055W        W11536   6.755   1.051  15.080
11056W        W11537   6.564   3.091  15.469
11057W        W11538   6.398   2.694  16.265
11058W        W11539   6.294   1.773  15.243
11059W        W11540   5.727   1.983  16.229
11060W        W11541   6.608   1.771  16.296
11061W        W11542   3.983   0.786  16.720
11062W        W11543   6.761   1.838  17.547
11063W        W11544   7.112   3.456  16.693
11064W        W11545   5.042   2.900  16.095
11065W        W11546   6.049   3.433  17.419
11066W        W11547   6.043   0.763  17.183
11067W        W11548   5.250   3.471  17.244
11068W        W11549   6.947   0.425  15.710
11069W        W11550   6.738   1.744  17.011
11070W        W11551   3.721   1.065  17.049
11071W        W11552   6.581   0.860  16.067
11072W        W11553   5.877   2.710  16.062
11073W        W11554   5.133   3.301  15.675
11074W        W11555   4.248   0.481  14.933
11075W        W11556   5.352   0.135  16.743
11076W        W11557   4.380   3.255  14.591
11077W        W11558   4.754   1.721  15.342
11078W        W11559   5.408   2.350  17.655
11079W        W11560   5.238   0.708  15.645
11080W        W11561   6.594   0.305  16.073
11081W        W11562   6.314   3.587  16.401
11082W        W11563   5.726   3.235  16.741
11083W        W11564   5.122   2.272  16.702
11084W        W11565   6.892   2.995  16.828
11085W        W11566   4.586   0.498  15.597
11086W        W11567   5.108   2.795  16.557
11087W        W11568   4.591   0.726  14.622
11088W        W11569   5.392   1.335  17.016
11089W        W11570   6.240   0.201  16.886
11090W        W11571   3.660   2.044  16.771
11091W        W11572   5.364   1.862  14.929
11092W        W11573   4.632   0.177  14.699
11093W        W11574   5.370   1.258  15.750
11094W        W11575   6.340   0.234  17.449
11095W        W11576   4.928   2.246  17.558
11096W        W11577   6.349   2.058  17.668
11097W        W11578   4.855   0.814  16.566
11098W        W11579   4.281   0.770  15.964
11099W        W11580   4.067   3.482  15.640
11100W        W11581   5.399   2.812  17.765
11101W        W11582   4.434   2.297  15.124
11102W        W11583   6.114   1.682  16.345
11103W        W11584   6.394   1.481  16.744
11104W        W11585   5.599   2.155  16.678
11105W        W11586   6.069   2.529  14.810
11106W        W11587   5.741   0.550  16.138
11107W        W11588   7.220   0.828  15.406
11108W        W11589   3.714   3.417  17.437
11109W        W11590   4.131   2.643  16.969
11110W        W11591   3.698   3.489  15.201
11111W        W11592   5.597   0.759  17.007
11112W        W11593   4.960   2.782  14.856
11113W        W11594   6.865   3.164  15.042
11114W        W11595   5.840   1.817  15.056
11115W        W11596   4.683   1.008  15.573
11116W        W11597   5.515   0.918  14.625
11117W        W11598   6.452   0.389  15.420
11118W        W11599   3.782   0.237  14.868
11119W        W11600   5.068   2.556  17.158
11120W        W11601   4.867   2.472  16.250
11121W        W11602   4.609   2.424  14.648
11122W        W11603   3.850   2.665  15.416
11123W        W11604   5.767   0.437  17.400
11124W        W11605   4.962   0.205  15.681
11125W        W11606   6.021   0.282  15.186
11126W        W11607   3.966   0.214  16.763
11127W        W11608   4.014   1.177  16.133
11128W        W11609   6.703   0.285  16.539
11129W        W11610   4.125   0.783  15.353
11130W        W11611   6.696   0.471  16.969
11131W        W11612   7.092   1.674  14.654
11132W        W11613   4.384   0.432  16.473
11133W        W11614   5.498   1.004  17.413
11134W        W11615   3.646   0.694  14.891
11135W        W11616   4.432   2.083  17.452
11136W        W11617   5.790   1.481  16.631
11137W        W11618   5.657   3.560  14.927
11138W        W11619   3.803   2.067  14.624
11139W        W11620   4.059   1.645  17.381
11140W        W11621   5.050   1.750  17.175
11141W        W11622   6.818   0.109  17.437
11142W        W11623   7.216   1.719  17.428
11143W        W11624   7.204   1.919  15.114
11144W        W11625   6.067   2.251  15.213
11145W        W11626   6.541   3.551  14.908
11146W        W11627   6.972   1.358  16.663
11147W        W11628   5.135   0.117  14.867
11148W        W11629   6.674   2.716  14.810
11149W        W11630   4.877   2.803  17.558
11150W        W11631   7.003   0.794  17.356
11151W        W11632   6.214   3.453  15.324
11152W        W11633   6.453   2.072  16.691
11153W        W11634   4.703   0.488  17.358
11154W        W11635   4.675   2.736  15.309
11155W        W11636   6.430   2.234  15.573
11156W        W11637   4.198   0.860  17.297
11157W        W11638   5.527   2.922  15.761
11158W        W11639   7.277   1.482  15.942
11159W        W11640   5.499   0.115  17.661
11160W        W11641   6.279   2.820  16.740
11161W        W11642   6.582   3.164  16.448
11162W        W11643   5.801   2.966  14.876
11163W        W11644   3.811   2.858  17.718
11164W        W11645   4.554   0.850  16.956
11165W        W11646   4.524   0.198  16.066
11166W        W11647   6.145   1.040  16.758
11167W        W11648   4.943   2.211  14.958
11168W        W11649   6.941   2.153  16.457
11169W        W11650   6.655   3.593  15.677
11170W        W11651   4.754   0.613  16.122
11171W        W11652   4.523   2.106  16.212
11172W        W11653   4.836   3.517  16.962
11173W        W11654   6.062   1.801  16.927
11174W        W11655   3.911   1.599  14.842
11175W        W11656   7.045   3.257  15.539
11176W        W11657   6.882   0.581  15.158
11177W        W11658   5.021   0.100  17.561
11178W        W11659   6.727   2.902  16.019
11179W        W11660   6.756   1.458  15.924
11180W        W11661   4.873   1.131  16.140
11181W        W11662   5.118   1.393  17.464
11182W        W11663   6.229   2.546  17.327
11183W        W11664   4.879   1.000  17.439
11184W        W11665   4.858   3.466  16.055
11185W        W11666   4.287   2.786  14.819
11186W        W11667   6.804   2.544  15.629
11187W        W11668   4.408   1.336  17.515
11188W        W11669   7.181   1.266  14.996
11189W        W11670   4.926   2.323  15.467
11190W        W11671   6.025   1.705  17.548
11191W        W11672   5.916   1.333  17.092
11192W        W11673   4.476   1.705  17.121
11193W        W11674   6.686   3.593  16.950
11194W        W11675   4.141   0.377  17.531
11195W        W11676   4.480   1.400  16.584
11196W        W11677   4.849   1.214  14.706
11197W        W11678   3.652   2.973  17.251
11198W        W11679   5.237   1.682  16.694
11199W        W11680   5.060   0.707  14.799
11200W        W11681   4.195   1.523  15.580
11201W        W11682   3.966   3.375  17.017
11202W        W11683   6.761   1.601  15.125
11203W        W11684   6.292   2.726  15.774
11204W        W11685   6.856   0.114  15.247
11205W        W11686   6.376   2.589  15.258
11206W        W11687   5.278   1.647  15.343
11207W        W11688   6.465   0.451  14.866
11208W        W11689   6.530   1.058  17.052
11209W        W11690   4.239   1.651  16.259
11210W        W11691   4.533   2.590  15.908
11211W        W11692   6.296   1.210  15.873
11212W        W11693   5.319   0.589  16.569
11213W        W11694   7.281   2.500  17.080
11214W        W11695   7.199   0.487  16.641
11215W        W11696   3.738   3.317  16.017
11216W        W11697   4.247   2.504  15.553
11217W        W11698   7.036   1.942  15.998
11218W        W11699   6.390   2.119  14.878
11219W        W11700   5.685   3.640  17.090
11220W        W11701   5.357   0.072  15.407
11221W        W11702   6.070   0.941  16.266
11222W        W11703   3.756   2.528  16.598
11223W        W11704   5.009   0.490  15.239
11224W        W11705   5.807   0.955  15.802
11225W        W11706   6.012   2.365  16.924
11226W        W11707   4.166   2.970  17.359
11227W        W11708   4.608   0.750  15.096
11228W        W11709   6.125   0.892  15.421
11229W        W11710   6.083   3.000  17.658
11230W        W11711   4.768   1.592  16.257
11231W        W11712   4.423   3.290  17.122
11232W        W11713   7.168   3.407  14.723
11233W        W11714   6.026   2.341  16.407
11234W        W11715   4.462   1.990  15.649
11235W        W11716   4.833   2.997  17.044
11236W        W11717   5.211   0.416  16.085
11237W        W11718   3.822   2.400  15.015
11238W        W11719   5.341   1.351  14.885
11239W        W11720   3.987   1.900  15.904
11240W        W11721   5.277   0.542  17.368
11241W        W11722   6.949   0.251  14.795
11242W        W11723   7.254   2.348  17.568
11243W        W11724   4.401   3.602  16.657
11244W        W11725   7.260   2.224  15.531
11245W        W11726   5.790   1.491  16.044
11246W        W11727   5.557   0.103  15.934
11247W        W11728   4.616   3.087  15.771
11248W        W11729   5.115   0.828  16.996
11249W        W11730   4.815   0.197  16.465
11250W        W11731   3.878   3.019  15.013
11251W        W11732   5.694   2.383  15.731
11252W        W11733   4.569   3.178  17.610
11253W        W11734   4.046   2.001  15.306
11254W        W11735   3.931   0.544  16.305
11255W        W11736   5.479   2.509  16.362
11256W        W11737   3.731   0.363  15.382
11257W        W11738   6.395   1.569  17.309
11258W        W11739   6.272   0.955  14.881
11259W        W11740   6.789   2.627  16.529
11260W        W11741   5.450   3.111  16.360
11261W        W11742   4.862   3.215  15.271
11262W        W11743   6.144   0.118  14.701
11263W        W11744   3.944   3.378  16.442
11264W        W11745   3.855   1.266  15.409
11265W        W11746   4.546   1.255  15.134
11266W        W11747   4.652   1.863  16.660
11267W        W11748   6.126   0.149  15.780
11268W        W11749   5.257   3.580  16.283
11269W        W11750   6.471   3.042  17.220
11270W        W11751   6.055   3.191  16.331
11271W        W11752   6.074   2.171  15.925
11272W        W11753   5.536   0.396  14.996
11273W        W11754   7.217   0.024  15.718
11274W        W11755   4.905   1.659  14.881
11275W        W11756   7.071   0.996  15.871
11276W        W11757   5.763   2.166  14.748
11277W        W11758   6.699   2.366  17.496
11278W        W11759   6.353   3.067  14.963
11279W        W11760   4.788   1.326  17.110
11280W        W11761   6.880   2.821  17.387
11281W        W11762   3.824   1.242  17.541
11282W        W11763   5.584   1.719  17.267
11283W        W11764   3.941   2.477  15.924
11284W        W11765   4.088   1.774  16.814
11285W        W11766   6.405   2.060  17.164
11286W        W11767   6.177   3.440  17.975
11287W        W11768   6.073   1.179  17.528
11288W        W11769   6.350   3.233  15.933
11289W        W11770   5.352   2.953  17.256
11290W        W11771   4.837   3.308  16.525
11291W        W11772   6.642   2.479  16.944
11292W        W11773   6.643   2.263  16.065
11293W        W11774   6.284   3.329  16.816
11294W        W11775   4.262   3.058  16.686
11295W        W11776   5.734   3.276  15.407
11296W        W11777   5.168   2.769  15.422
11297W        W11778   4.389   1.509  14.681
11298W        W11779   3.728   7.239   3.359
11299W        W11780   4.104   6.132   2.882
11300W        W11781   6.809   5.862   0.652
11301W        W11782   6.939   6.947   2.679
11302W        W11783   4.857   6.938   0.205
11303W        W11784   4.940   5.090   1.188
11304W        W11785   4.455   4.938   1.352
11305W        W11786   5.446   5.753   0.786
11306W        W11787   5.121   6.845   3.141
11307W        W11788   3.770   4.406   3.104
11308W        W11789   4.532   3.686   2.906
11309W        W11790   6.226   4.074   1.793
11310W        W11791   5.875   4.945   0.363
11311W        W11792   6.445   4.379   3.454
11312W        W11793   3.811   4.171   2.579
11313W        W11794   3.910   6.790   3.600
11314W        W11795   5.432   6.180   0.332
11315W        W11796   3.864   4.963   2.025
11316W        W11797   4.757   4.854   3.262
11317W        W11798   7.216   4.713   1.761
11318W        W11799   5.288   5.089   1.647
11319W        W11800   5.834   6.428   2.016
11320W        W11801   4.334   5.862   2.248
11321W        W11802   3.693   5.390   1.819
11322W        W11803   4.729   5.362   3.011
11323W        W11804   7.000   5.145   3.265
11324W        W11805   4.616   6.589   1.710
11325W        W11806   5.737   6.278   2.844
11326W        W11807   4.957   4.918   2.069
11327W        W11808   5.249   5.702   1.712
11328W        W11809   6.246   6.475   3.560
11329W        W11810   5.325   5.795   3.570
11330W        W11811   5.306   5.511   3.048
11331W        W11812   3.715   4.902   3.570
11332W        W11813   6.547   6.437   3.169
11333W        W11814   4.128   4.019   1.167
11334W        W11815   4.655   6.277   2.166
11335W        W11816   7.118   6.060   1.456
11336W        W11817   6.531   4.460   2.023
11337W        W11818   6.816   4.413   0.118
11338W        W11819   7.281   5.214   2.424
11339W        W11820   5.248   6.921   2.177
11340W        W11821   7.022   6.387   0.615
11341W        W11822   4.151   7.173   0.369
11342W        W11823   4.544   7.219   1.045
11343W        W11824   4.341   3.973   2.471
11344W        W11825   6.964   4.991   2.746
11345W        W11826   6.369   5.413   1.205
11346W        W11827   6.335   5.101   0.232
11347W        W11828   5.543   6.245   2.372
11348W        W11829   5.349   4.575   1.571
11349W        W11830   5.949   6.662   2.565
11350W        W11831   6.820   5.453   0.987
11351W        W11832   5.722   4.111   1.003
11352W        W11833   4.379   6.805   0.686
11353W        W11834   3.750   4.304   1.285
11354W        W11835   6.536   4.911   1.759
11355W        W11836   3.994   6.528   1.674
11356W        W11837   5.335   6.878   0.544
11357W        W11838   6.727   4.904   0.008
11358W        W11839   3.750   6.662   2.172
11359W        W11840   4.541   6.234   2.652
11360W        W11841   4.914   5.594   1.271
11361W        W11842   4.936   3.999   2.364
11362W        W11843   7.165   3.761   1.661
11363W        W11844   4.384   5.633   0.129
11364W        W11845   4.039   4.666   0.308
11365W        W11846   4.101   6.622   1.102
11366W        W11847   5.232   6.105   1.350
11367W        W11848   6.564   6.964   3.064
11368W        W11849   5.490   4.606   0.748
11369W        W11850   6.873   7.004   1.520
11370W        W11851   6.550   4.857   3.118
11371W        W11852   7.263   6.513   1.252
11372W        W11853   5.890   5.805   2.736
11373W        W11854   3.656   5.356   0.942
11374W        W11855   4.767   5.771   2.515
11375W        W11856   5.971   5.035   0.893
11376W        W11857   5.848   5.525   0.997
11377W        W11858   4.191   4.945   2.471
11378W        W11859   4.176   4.821   3.393
11379W        W11860   4.066   3.738   1.552
11380W        W11861   5.834   4.085   2.113
11381W        W11862   5.482   4.270   3.276
11382W        W11863   5.837   4.419   0.454
11383W        W11864   7.020   6.812   3.208
11384W        W11865   5.987   3.893   3.247
11385W        W11866   7.006   6.194   3.369
11386W        W11867   6.436   4.361   2.965
11387W        W11868   6.236   4.299   1.235
11388W        W11869   6.629   5.433   3.639
11389W        W11870   4.369   7.009   1.625
11390W        W11871   5.027   4.726   0.611
11391W        W11872   4.596   4.010   3.275
11392W        W11873   6.648   4.494   0.956
11393W        W11874   7.015   4.976   0.901
11394W        W11875   4.758   7.193   3.372
11395W        W11876   4.684   3.729   0.607
11396W        W11877   7.005   4.263   1.642
11397W        W11878   7.155   6.512   0.087
11398W        W11879   4.062   5.715   1.789
11399W        W11880   5.979   4.302   0.019
11400W        W11881   7.113   6.634   1.739
11401W        W11882   7.152   3.828   2.489
11402W        W11883   5.597   5.040   3.043
11403W        W11884   5.690   6.379   0.746
11404W        W11885   6.090   5.673   3.486
11405W        W11886   5.764   3.650   1.795
11406W        W11887   4.376   4.553   1.858
11407W        W11888   3.930   5.753   2.632
11408W        W11889   5.789   6.946   1.338
11409W        W11890   6.983   4.543   2.210
11410W        W11891   5.620   6.890   2.977
11411W        W11892   6.963   5.949   0.182
11412W        W11893   5.398   5.432   1.243
11413W        W11894   7.250   3.943   2.984
11414W        W11895   5.399   5.778   2.578
11415W        W11896   5.616   4.664   2.023
11416W        W11897   6.468   4.962   0.861
11417W        W11898   6.755   4.695   0.503
11418W        W11899   6.564   6.735   0.892
11419W        W11900   6.398   6.338   1.688
11420W        W11901   6.294   5.417   0.666
11421W        W11902   5.727   5.627   1.652
11422W        W11903   6.608   5.415   1.719
11423W        W11904   3.983   4.430   2.143
11424W        W11905   6.761   5.482   2.970
11425W        W11906   7.112   7.100   2.116
11426W        W11907   5.042   6.544   1.518
11427W        W11908   6.049   7.077   2.842
11428W        W11909   6.043   4.407   2.606
11429W        W11910   5.250   7.115   2.667
11430W        W11911   6.947   4.069   1.133
11431W        W11912   6.738   5.388   2.434
11432W        W11913   3.721   4.709   2.472
11433W        W11914   6.581   4.504   1.490
11434W        W11915   6.992   4.655   3.267
11435W        W11916   5.877   6.354   1.485
11436W        W11917   5.133   6.945   1.098
11437W        W11918   4.248   4.125   0.356
11438W        W11919   5.352   3.779   2.166
11439W        W11920   4.380   6.899   0.014
11440W        W11921   4.754   5.365   0.765
11441W        W11922   5.408   5.994   3.078
11442W        W11923   5.238   4.352   1.068
11443W        W11924   6.594   3.949   1.496
11444W        W11925   6.314   7.231   1.824
11445W        W11926   5.726   6.879   2.164
11446W        W11927   5.122   5.916   2.125
11447W        W11928   6.892   6.639   2.251
11448W        W11929   4.586   4.142   1.020
11449W        W11930   5.108   6.439   1.980
11450W        W11931   4.591   4.370   0.045
11451W        W11932   5.392   4.979   2.439
11452W        W11933   6.240   3.845   2.309
11453W        W11934   3.660   5.688   2.194
11454W        W11935   5.364   5.506   0.352
11455W        W11936   4.632   3.821   0.122
11456W        W11937   5.370   4.902   1.173
11457W        W11938   6.340   3.878   2.872
11458W        W11939   4.928   5.890   2.981
11459W        W11940   5.732   5.672   3.198
11460W        W11941   6.349   5.702   3.091
11461W        W11942   5.633   3.842   3.596
11462W        W11943   4.855   4.458   1.989
11463W        W11944   4.281   4.414   1.387
11464W        W11945   4.067   7.126   1.063
11465W        W11946   5.399   6.456   3.188
11466W        W11947   4.434   5.941   0.547
11467W        W11948   6.114   5.326   1.768
11468W        W11949   6.394   5.125   2.167
11469W        W11950   5.599   5.799   2.101
11470W        W11951   6.069   6.173   0.233
11471W        W11952   5.741   4.194   1.561
11472W        W11953   7.220   4.472   0.829
11473W        W11954   3.714   7.061   2.860
11474W        W11955   4.131   6.287   2.392
11475W        W11956   3.698   7.133   0.624
11476W        W11957   5.597   4.403   2.430
11477W        W11958   4.960   6.426   0.279
11478W        W11959   6.865   6.808   0.465
11479W        W11960   5.840   5.461   0.479
11480W        W11961   4.683   4.652   0.996
11481W        W11962   5.515   4.562   0.048
11482W        W11963   6.099   6.127   3.226
11483W        W11964   6.452   4.033   0.843
11484W        W11965   3.782   3.881   0.291
11485W        W11966   5.068   6.200   2.581
11486W        W11967   4.867   6.116   1.673
11487W        W11968   4.609   6.068   0.071
11488W        W11969   3.850   6.309   0.839
11489W        W11970   4.354   5.379   3.281
11490W        W11971   5.058   3.939   3.467
11491W        W11972   5.767   4.081   2.823
11492W        W11973   4.962   3.849   1.104
11493W        W11974   6.021   3.926   0.609
11494W        W11975   3.966   3.858   2.186
11495W        W11976   4.014   4.821   1.556
11496W        W11977   6.703   3.929   1.962
11497W        W11978   4.125   4.427   0.776
11498W        W11979   7.092   5.318   0.077
11499W        W11980   4.384   4.076   1.896
11500W        W11981   5.498   4.648   2.836
11501W        W11982   3.646   4.338   0.314
11502W        W11983   4.432   5.727   2.875
11503W        W11984   5.790   5.125   2.054
11504W        W11985   5.657   7.204   0.350
11505W        W11986   3.803   5.711   0.047
11506W        W11987   4.538   6.122   3.173
11507W        W11988   4.059   5.289   2.804
11508W        W11989   5.050   5.394   2.598
11509W        W11990   6.818   3.753   2.860
11510W        W11991   7.216   5.363   2.851
11511W        W11992   7.204   5.563   0.537
11512W        W11993   6.067   5.895   0.636
11513W        W11994   6.541   7.195   0.331
11514W        W11995   5.718   5.185   3.473
11515W        W11996   4.048   6.152   3.513
11516W        W11997   7.254   4.074   3.465
11517W        W11998   6.972   5.002   2.086
11518W        W11999   5.280   7.132   3.563
11519W        W12000   5.135   3.761   0.290
11520W        W12001   6.674   6.360   0.233
11521W        W12002   4.443   4.453   3.119
11522W        W12003   4.877   6.447   2.981
11523W        W12004   7.003   4.438   2.779
11524W        W12005   6.214   7.097   0.747
11525W        W12006   6.453   5.716   2.114
11526W        W12007   4.703   4.132   2.781
11527W        W12008   5.172   5.201   3.538
11528W        W12009   4.675   6.380   0.732
11529W        W12010   6.430   5.878   0.996
11530W        W12011   4.198   4.504   2.720
11531W        W12012   5.527   6.566   1.184
11532W        W12013   7.277   5.126   1.365
11533W        W12014   5.499   3.759   3.084
11534W        W12015   6.279   6.464   2.163
11535W        W12016   6.582   6.808   1.871
11536W        W12017   5.801   6.610   0.299
11537W        W12018   3.811   6.502   3.141
11538W        W12019   4.554   4.494   2.379
11539W        W12020   4.524   3.842   1.489
11540W        W12021   6.145   4.684   2.181
11541W        W12022   4.943   5.855   0.381
11542W        W12023   6.941   5.797   1.880
11543W        W12024   4.268   6.555   3.303
11544W        W12025   6.655   7.237   1.100
11545W        W12026   4.754   4.257   1.545
11546W        W12027   4.523   5.750   1.635
11547W        W12028   4.836   7.161   2.385
11548W        W12029   6.903   7.257   3.417
11549W        W12030   6.062   5.445   2.350
11550W        W12031   3.911   5.243   0.265
11551W        W12032   7.045   6.901   0.962
11552W        W12033   6.882   4.225   0.581
11553W        W12034   5.021   3.744   2.984
11554W        W12035   6.727   6.546   1.442
11555W        W12036   6.756   5.102   1.347
11556W        W12037   4.873   4.775   1.563
11557W        W12038   5.118   5.037   2.887
11558W        W12039   6.229   6.190   2.750
11559W        W12040   4.879   4.644   2.862
11560W        W12041   4.858   7.110   1.478
11561W        W12042   4.175   7.069   3.112
11562W        W12043   4.287   6.430   0.242
11563W        W12044   6.804   6.188   1.052
11564W        W12045   4.408   4.980   2.938
11565W        W12046   7.181   4.910   0.419
11566W        W12047   4.926   5.967   0.890
11567W        W12048   6.025   5.349   2.971
11568W        W12049   5.916   4.977   2.515
11569W        W12050   4.476   5.349   2.544
11570W        W12051   6.686   7.237   2.373
11571W        W12052   6.477   3.871   3.367
11572W        W12053   4.141   4.021   2.954
11573W        W12054   4.480   5.044   2.007
11574W        W12055   4.849   4.858   0.129
11575W        W12056   3.652   6.617   2.674
11576W        W12057   5.237   5.326   2.117
11577W        W12058   5.060   4.351   0.222
11578W        W12059   4.195   5.167   1.003
11579W        W12060   3.966   7.019   2.440
11580W        W12061   6.761   5.245   0.548
11581W        W12062   6.856   4.161   3.234
11582W        W12063   6.292   6.370   1.197
11583W        W12064   3.890   5.294   3.374
11584W        W12065   6.856   3.758   0.670
11585W        W12066   6.376   6.233   0.681
11586W        W12067   5.278   5.291   0.766
11587W        W12068   6.465   4.095   0.289
11588W        W12069   6.530   4.702   2.475
11589W        W12070   4.239   5.295   1.682
11590W        W12071   4.533   6.234   1.331
11591W        W12072   6.296   4.854   1.296
11592W        W12073   5.319   4.233   1.992
11593W        W12074   7.281   6.144   2.503
11594W        W12075   7.199   4.131   2.064
11595W        W12076   3.738   6.961   1.440
11596W        W12077   4.247   6.148   0.976
11597W        W12078   4.162   3.765   3.529
11598W        W12079   5.281   6.618   3.631
11599W        W12080   7.036   5.586   1.421
11600W        W12081   6.390   5.763   0.301
11601W        W12082   5.685   7.284   2.513
11602W        W12083   6.542   6.006   3.550
11603W        W12084   5.357   3.716   0.830
11604W        W12085   6.070   4.585   1.689
11605W        W12086   3.756   6.172   2.021
11606W        W12087   5.009   4.134   0.662
11607W        W12088   4.813   5.618   3.511
11608W        W12089   5.807   4.599   1.225
11609W        W12090   4.166   6.614   2.782
11610W        W12091   4.757   6.597   3.505
11611W        W12092   4.608   4.394   0.519
11612W        W12093   6.125   4.536   0.844
11613W        W12094   4.768   5.236   1.680
11614W        W12095   4.423   6.934   2.545
11615W        W12096   7.168   7.051   0.146
11616W        W12097   4.031   5.723   3.142
11617W        W12098   6.026   5.985   1.830
11618W        W12099   4.462   5.634   1.072
11619W        W12100   4.833   6.641   2.467
11620W        W12101   5.211   4.060   1.508
11621W        W12102   3.822   6.044   0.438
11622W        W12103   5.341   4.995   0.308
11623W        W12104   3.987   5.544   1.327
11624W        W12105   5.277   4.186   2.791
11625W        W12106   6.949   3.895   0.218
11626W        W12107   7.042   5.641   3.317
11627W        W12108   5.696   6.898   3.469
11628W        W12109   7.254   5.992   2.991
11629W        W12110   6.662   6.790   3.602
11630W        W12111   4.401   7.246   2.080
11631W        W12112   7.260   5.868   0.954
11632W        W12113   5.790   5.135   1.467
11633W        W12114   5.557   3.747   1.357
11634W        W12115   4.616   6.731   1.194
11635W        W12116   5.115   4.472   2.419
11636W        W12117   4.815   3.841   1.888
11637W        W12118   3.878   6.663   0.436
11638W        W12119   5.694   6.027   1.154
11639W        W12120   4.569   6.822   3.033
11640W        W12121   4.046   5.645   0.729
11641W        W12122   3.931   4.188   1.728
11642W        W12123   5.479   6.153   1.785
11643W        W12124   3.731   4.007   0.805
11644W        W12125   6.395   5.213   2.732
11645W        W12126   6.272   4.599   0.304
11646W        W12127   6.789   6.271   1.952
11647W        W12128   5.450   6.755   1.783
11648W        W12129   4.862   6.859   0.694
11649W        W12130   3.944   7.022   1.865
11650W        W12131   6.141   4.780   3.500
11651W        W12132   4.124   4.310   3.499
11652W        W12133   3.855   4.910   0.832
11653W        W12134   4.546   4.899   0.557
11654W        W12135   6.309   5.226   3.374
11655W        W12136   4.652   5.507   2.083
11656W        W12137   6.126   3.793   1.203
11657W        W12138   5.257   7.224   1.706
11658W        W12139   6.471   6.686   2.643
11659W        W12140   6.055   6.835   1.754
11660W        W12141   5.536   4.040   0.419
11661W        W12142   7.217   3.668   1.141
11662W        W12143   4.905   5.303   0.304
11663W        W12144   7.071   4.640   1.294
11664W        W12145   5.763   5.810   0.171
11665W        W12146   6.353   6.711   0.386
11666W        W12147   4.968   4.386   3.292
11667W        W12148   4.788   4.970   2.533
11668W        W12149   6.880   6.465   2.810
11669W        W12150   5.980   4.415   3.187
11670W        W12151   3.824   4.886   2.964
11671W        W12152   5.584   5.363   2.690
11672W        W12153   3.941   6.121   1.347
11673W        W12154   4.088   5.418   2.237
11674W        W12155   6.405   5.704   2.587
11675W        W12156   6.177   7.084   3.398
11676W        W12157   6.073   4.823   2.951
11677W        W12158   6.350   6.877   1.356
11678W        W12159   5.352   6.597   2.679
11679W        W12160   4.837   6.952   1.948
11680W        W12161   6.642   6.123   2.367
11681W        W12162   5.692   6.195   3.504
11682W        W12163   4.297   6.148   1.843
11683W        W12164   6.643   5.907   1.488
11684W        W12165   6.284   6.973   2.239
11685W        W12166   4.262   6.702   2.109
11686W        W12167   5.283   4.754   3.319
11687W        W12168   5.734   6.920   0.830
11688W        W12169   5.042   6.175   3.468
11689W        W12170   5.168   6.413   0.845
11690W        W12171   4.389   5.153   0.104
11691W        W12172   3.728   7.239   7.003
11692W        W12173   4.104   6.132   6.526
11693W        W12174   6.809   5.862   4.296
11694W        W12175   6.939   6.947   6.323
11695W        W12176   4.857   6.938   3.849
11696W        W12177   4.940   5.090   4.832
11697W        W12178   4.455   4.938   4.996
11698W        W12179   5.446   5.753   4.430
11699W        W12180   5.121   6.845   6.785
11700W        W12181   3.770   4.406   6.748
11701W        W12182   4.532   3.686   6.550
11702W        W12183   6.226   4.074   5.437
11703W        W12184   5.875   4.945   4.007
11704W        W12185   6.445   4.379   7.098
11705W        W12186   3.811   4.171   6.223
11706W        W12187   3.910   6.790   7.244
11707W        W12188   5.432   6.180   3.976
11708W        W12189   3.864   4.963   5.669
11709W        W12190   4.757   4.854   6.906
11710W        W12191   7.216   4.713   5.405
11711W        W12192   6.980   5.756   6.264
11712W        W12193   5.288   5.089   5.291
11713W        W12194   5.834   6.428   5.660
11714W        W12195   4.334   5.862   5.892
11715W        W12196   3.693   5.390   5.463
11716W        W12197   4.729   5.362   6.655
11717W        W12198   7.000   5.145   6.909
11718W        W12199   4.616   6.589   5.354
11719W        W12200   5.737   6.278   6.488
11720W        W12201   4.957   4.918   5.713
11721W        W12202   5.249   5.702   5.356
11722W        W12203   6.246   6.475   7.204
11723W        W12204   5.325   5.795   7.214
11724W        W12205   5.306   5.511   6.692
11725W        W12206   3.715   4.902   7.214
11726W        W12207   6.547   6.437   6.813
11727W        W12208   4.128   4.019   4.811
11728W        W12209   4.655   6.277   5.810
11729W        W12210   7.118   6.060   5.100
11730W        W12211   6.531   4.460   5.667
11731W        W12212   6.816   4.413   3.762
11732W        W12213   7.281   5.214   6.068
11733W        W12214   5.248   6.921   5.821
11734W        W12215   7.022   6.387   4.259
11735W        W12216   4.151   7.173   4.013
11736W        W12217   4.544   7.219   4.689
11737W        W12218   4.341   3.973   6.115
11738W        W12219   6.964   4.991   6.390
11739W        W12220   6.369   5.413   4.849
11740W        W12221   6.335   5.101   3.876
11741W        W12222   5.543   6.245   6.016
11742W        W12223   5.349   4.575   5.215
11743W        W12224   5.949   6.662   6.209
11744W        W12225   6.820   5.453   4.631
11745W        W12226   5.722   4.111   4.647
11746W        W12227   4.379   6.805   4.330
11747W        W12228   3.750   4.304   4.929
11748W        W12229   6.536   4.911   5.403
11749W        W12230   3.994   6.528   5.318
11750W        W12231   5.335   6.878   4.188
11751W        W12232   6.727   4.904   3.652
11752W        W12233   3.750   6.662   5.816
11753W        W12234   4.541   6.234   6.296
11754W        W12235   4.914   5.594   4.915
11755W        W12236   4.936   3.999   6.008
11756W        W12237   7.165   3.761   5.305
11757W        W12238   4.384   5.633   3.773
11758W        W12239   4.039   4.666   3.952
11759W        W12240   4.101   6.622   4.746
11760W        W12241   5.232   6.105   4.994
11761W        W12242   6.564   6.964   6.708
11762W        W12243   5.490   4.606   4.392
11763W        W12244   6.873   7.004   5.164
11764W        W12245   6.550   4.857   6.762
11765W        W12246   7.263   6.513   4.896
11766W        W12247   5.890   5.805   6.380
11767W        W12248   3.656   5.356   4.586
11768W        W12249   4.767   5.771   6.159
11769W        W12250   5.971   5.035   4.537
11770W        W12251   5.848   5.525   4.641
11771W        W12252   4.191   4.945   6.115
11772W        W12253   4.176   4.821   7.037
11773W        W12254   4.066   3.738   5.196
11774W        W12255   5.834   4.085   5.757
11775W        W12256   5.482   4.270   6.920
11776W        W12257   7.020   6.812   6.852
11777W        W12258   5.987   3.893   6.891
11778W        W12259   7.006   6.194   7.013
11779W        W12260   6.436   4.361   6.609
11780W        W12261   6.236   4.299   4.879
11781W        W12262   6.629   5.433   7.283
11782W        W12263   4.369   7.009   5.269
11783W        W12264   5.027   4.726   4.255
11784W        W12265   4.596   4.010   6.919
11785W        W12266   6.648   4.494   4.600
11786W        W12267   7.015   4.976   4.545
11787W        W12268   4.758   7.193   7.016
11788W        W12269   7.005   4.263   5.286
11789W        W12270   7.155   6.512   3.731
11790W        W12271   4.062   5.715   5.433
11791W        W12272   5.979   4.302   3.663
11792W        W12273   7.113   6.634   5.383
11793W        W12274   7.152   3.828   6.133
11794W        W12275   5.597   5.040   6.687
11795W        W12276   5.690   6.379   4.390
11796W        W12277   6.090   5.673   7.130
11797W        W12278   5.764   3.650   5.439
11798W        W12279   4.376   4.553   5.502
11799W        W12280   3.930   5.753   6.276
11800W        W12281   5.789   6.946   4.982
11801W        W12282   6.983   4.543   5.854
11802W        W12283   5.620   6.890   6.621
11803W        W12284   6.963   5.949   3.826
11804W        W12285   5.398   5.432   4.887
11805W        W12286   7.250   3.943   6.628
11806W        W12287   5.399   5.778   6.222
11807W        W12288   5.616   4.664   5.667
11808W        W12289   6.468   4.962   4.505
11809W        W12290   6.755   4.695   4.147
11810W        W12291   6.564   6.735   4.536
11811W        W12292   6.398   6.338   5.332
11812W        W12293   6.294   5.417   4.310
11813W        W12294   5.727   5.627   5.296
11814W        W12295   6.608   5.415   5.363
11815W        W12296   3.983   4.430   5.787
11816W        W12297   6.761   5.482   6.614
11817W        W12298   7.112   7.100   5.760
11818W        W12299   5.042   6.544   5.162
11819W        W12300   6.049   7.077   6.486
11820W        W12301   6.043   4.407   6.250
11821W        W12302   5.250   7.115   6.311
11822W        W12303   6.947   4.069   4.777
11823W        W12304   6.738   5.388   6.078
11824W        W12305   3.721   4.709   6.116
11825W        W12306   6.581   4.504   5.134
11826W        W12307   6.992   4.655   6.911
11827W        W12308   5.877   6.354   5.129
11828W        W12309   5.133   6.945   4.742
11829W        W12310   4.248   4.125   4.000
11830W        W12311   5.352   3.779   5.810
11831W        W12312   4.380   6.899   3.658
11832W        W12313   5.408   5.994   6.722
11833W        W12314   5.238   4.352   4.712
11834W        W12315   6.594   3.949   5.140
11835W        W12316   6.314   7.231   5.468
11836W        W12317   5.726   6.879   5.808
11837W        W12318   5.122   5.916   5.769
11838W        W12319   6.892   6.639   5.895
11839W        W12320   4.586   4.142   4.664
11840W        W12321   5.108   6.439   5.624
11841W        W12322   4.591   4.370   3.689
11842W        W12323   5.392   4.979   6.083
11843W        W12324   6.240   3.845   5.953
11844W        W12325   3.660   5.688   5.838
11845W        W12326   5.364   5.506   3.996
11846W        W12327   4.632   3.821   3.766
11847W        W12328   5.370   4.902   4.817
11848W        W12329   6.340   3.878   6.516
11849W        W12330   4.928   5.890   6.625
11850W        W12331   5.732   5.672   6.842
11851W        W12332   6.349   5.702   6.735
11852W        W12333   5.633   3.842   7.240
11853W        W12334   4.855   4.458   5.633
11854W        W12335   4.067   7.126   4.707
11855W        W12336   5.399   6.456   6.832
11856W        W12337   4.434   5.941   4.191
11857W        W12338   6.114   5.326   5.412
11858W        W12339   6.394   5.125   5.811
11859W        W12340   5.599   5.799   5.745
11860W        W12341   6.069   6.173   3.877
11861W        W12342   5.741   4.194   5.205
11862W        W12343   7.220   4.472   4.473
11863W        W12344   3.714   7.061   6.504
11864W        W12345   4.131   6.287   6.036
11865W        W12346   3.698   7.133   4.268
11866W        W12347   5.597   4.403   6.074
11867W        W12348   4.960   6.426   3.923
11868W        W12349   6.865   6.808   4.109
11869W        W12350   5.840   5.461   4.123
11870W        W12351   4.683   4.652   4.640
11871W        W12352   5.515   4.562   3.692
11872W        W12353   6.099   6.127   6.870
11873W        W12354   6.452   4.033   4.487
11874W        W12355   3.782   3.881   3.935
11875W        W12356   5.068   6.200   6.225
11876W        W12357   4.867   6.116   5.317
11877W        W12358   4.609   6.068   3.715
11878W        W12359   3.850   6.309   4.483
11879W        W12360   4.354   5.379   6.925
11880W        W12361   5.058   3.939   7.111
11881W        W12362   5.767   4.081   6.467
11882W        W12363   4.962   3.849   4.748
11883W        W12364   6.021   3.926   4.253
11884W        W12365   3.966   3.858   5.830
11885W        W12366   4.014   4.821   5.200
11886W        W12367   6.703   3.929   5.606
11887W        W12368   4.125   4.427   4.420
11888W        W12369   6.696   4.115   6.036
11889W        W12370   7.092   5.318   3.721
11890W        W12371   4.384   4.076   5.540
11891W        W12372   5.498   4.648   6.480
11892W        W12373   3.646   4.338   3.958
11893W        W12374   4.432   5.727   6.519
11894W        W12375   5.790   5.125   5.698
11895W        W12376   5.657   7.204   3.994
11896W        W12377   3.803   5.711   3.691
11897W        W12378   4.538   6.122   6.817
11898W        W12379   4.059   5.289   6.448
11899W        W12380   5.050   5.394   6.242
11900W        W12381   6.818   3.753   6.504
11901W        W12382   7.216   5.363   6.495
11902W        W12383   7.204   5.563   4.181
11903W        W12384   6.067   5.895   4.280
11904W        W12385   6.541   7.195   3.975
11905W        W12386   5.718   5.185   7.117
11906W        W12387   4.048   6.152   7.157
11907W        W12388   7.254   4.074   7.109
11908W        W12389   6.972   5.002   5.730
11909W        W12390   5.280   7.132   7.207
11910W        W12391   5.135   3.761   3.934
11911W        W12392   6.674   6.360   3.877
11912W        W12393   4.443   4.453   6.763
11913W        W12394   4.877   6.447   6.625
11914W        W12395   7.003   4.438   6.423
11915W        W12396   6.214   7.097   4.391
11916W        W12397   6.453   5.716   5.758
11917W        W12398   4.703   4.132   6.425
11918W        W12399   5.172   5.201   7.182
11919W        W12400   4.675   6.380   4.376
11920W        W12401   6.430   5.878   4.640
11921W        W12402   4.198   4.504   6.364
11922W        W12403   5.527   6.566   4.828
11923W        W12404   7.277   5.126   5.009
11924W        W12405   5.499   3.759   6.728
11925W        W12406   6.279   6.464   5.807
11926W        W12407   6.582   6.808   5.515
11927W        W12408   5.801   6.610   3.943
11928W        W12409   3.811   6.502   6.785
11929W        W12410   4.554   4.494   6.023
11930W        W12411   4.524   3.842   5.133
11931W        W12412   6.145   4.684   5.825
11932W        W12413   4.943   5.855   4.025
11933W        W12414   6.941   5.797   5.524
11934W        W12415   4.268   6.555   6.947
11935W        W12416   6.655   7.237   4.744
11936W        W12417   4.754   4.257   5.189
11937W        W12418   4.523   5.750   5.279
11938W        W12419   4.836   7.161   6.029
11939W        W12420   6.903   7.257   7.061
11940W        W12421   6.062   5.445   5.994
11941W        W12422   3.911   5.243   3.909
11942W        W12423   7.045   6.901   4.606
11943W        W12424   6.882   4.225   4.225
11944W        W12425   5.021   3.744   6.628
11945W        W12426   6.727   6.546   5.086
11946W        W12427   6.756   5.102   4.991
11947W        W12428   4.873   4.775   5.207
11948W        W12429   5.118   5.037   6.531
11949W        W12430   6.229   6.190   6.394
11950W        W12431   4.879   4.644   6.506
11951W        W12432   4.858   7.110   5.122
11952W        W12433   4.175   7.069   6.756
11953W        W12434   4.287   6.430   3.886
11954W        W12435   6.804   6.188   4.696
11955W        W12436   4.408   4.980   6.582
11956W        W12437   7.181   4.910   4.063
11957W        W12438   4.926   5.967   4.534
11958W        W12439   6.025   5.349   6.615
11959W        W12440   5.916   4.977   6.159
11960W        W12441   4.476   5.349   6.188
11961W        W12442   6.686   7.237   6.017
11962W        W12443   6.477   3.871   7.011
11963W        W12444   4.141   4.021   6.598
11964W        W12445   4.480   5.044   5.651
11965W        W12446   4.849   4.858   3.773
11966W        W12447   3.652   6.617   6.318
11967W        W12448   5.237   5.326   5.761
11968W        W12449   5.060   4.351   3.866
11969W        W12450   4.195   5.167   4.647
11970W        W12451   3.966   7.019   6.084
11971W        W12452   6.761   5.245   4.192
11972W        W12453   6.856   4.161   6.878
11973W        W12454   6.292   6.370   4.841
11974W        W12455   3.890   5.294   7.018
11975W        W12456   6.856   3.758   4.314
11976W        W12457   6.376   6.233   4.325
11977W        W12458   5.278   5.291   4.410
11978W        W12459   6.465   4.095   3.933
11979W        W12460   6.530   4.702   6.119
11980W        W12461   4.239   5.295   5.326
11981W        W12462   4.533   6.234   4.975
11982W        W12463   6.296   4.854   4.940
11983W        W12464   5.319   4.233   5.636
11984W        W12465   7.281   6.144   6.147
11985W        W12466   7.199   4.131   5.708
11986W        W12467   3.738   6.961   5.084
11987W        W12468   4.247   6.148   4.620
11988W        W12469   4.162   3.765   7.173
11989W        W12470   5.281   6.618   7.275
11990W        W12471   7.036   5.586   5.065
11991W        W12472   6.390   5.763   3.945
11992W        W12473   5.685   7.284   6.157
11993W        W12474   6.542   6.006   7.194
11994W        W12475   5.357   3.716   4.474
11995W        W12476   6.070   4.585   5.333
11996W        W12477   3.756   6.172   5.665
11997W        W12478   5.009   4.134   4.306
11998W        W12479   4.813   5.618   7.155
11999W        W12480   5.807   4.599   4.869
12000W        W12481   6.012   6.009   5.991
12001W        W12482   4.166   6.614   6.426
12002W        W12483   4.757   6.597   7.149
12003W        W12484   4.608   4.394   4.163
12004W        W12485   6.125   4.536   4.488
12005W        W12486   6.083   6.644   6.725
12006W        W12487   4.768   5.236   5.324
12007W        W12488   4.423   6.934   6.189
12008W        W12489   7.168   7.051   3.790
12009W        W12490   4.031   5.723   6.786
12010W        W12491   6.026   5.985   5.474
12011W        W12492   4.462   5.634   4.716
12012W        W12493   4.833   6.641   6.111
12013W        W12494   5.211   4.060   5.152
12014W        W12495   3.822   6.044   4.082
12015W        W12496   5.341   4.995   3.952
12016W        W12497   3.987   5.544   4.971
12017W        W12498   5.277   4.186   6.435
12018W        W12499   6.949   3.895   3.862
12019W        W12500   7.042   5.641   6.961
12020W        W12501   5.696   6.898   7.113
12021W        W12502   7.254   5.992   6.635
12022W        W12503   6.662   6.790   7.246
12023W        W12504   4.401   7.246   5.724
12024W        W12505   7.260   5.868   4.598
12025W        W12506   5.790   5.135   5.111
12026W        W12507   5.557   3.747   5.001
12027W        W12508   4.616   6.731   4.838
12028W        W12509   5.115   4.472   6.063
12029W        W12510   4.815   3.841   5.532
12030W        W12511   3.878   6.663   4.080
12031W        W12512   5.694   6.027   4.798
12032W        W12513   4.569   6.822   6.677
12033W        W12514   4.046   5.645   4.373
12034W        W12515   3.931   4.188   5.372
12035W        W12516   5.479   6.153   5.429
12036W        W12517   3.731   4.007   4.449
12037W        W12518   6.395   5.213   6.376
12038W        W12519   6.272   4.599   3.948
12039W        W12520   6.789   6.271   5.596
12040W        W12521   5.450   6.755   5.427
12041W        W12522   4.862   6.859   4.338
12042W        W12523   6.144   3.762   3.768
12043W        W12524   3.944   7.022   5.509
12044W        W12525   6.141   4.780   7.144
12045W        W12526   4.124   4.310   7.143
12046W        W12527   3.855   4.910   4.476
12047W        W12528   4.546   4.899   4.201
12048W        W12529   6.309   5.226   7.018
12049W        W12530   4.652   5.507   5.727
12050W        W12531   6.126   3.793   4.847
12051W        W12532   5.257   7.224   5.350
12052W        W12533   6.471   6.686   6.287
12053W        W12534   6.055   6.835   5.398
12054W        W12535   6.074   5.815   4.992
12055W        W12536   5.536   4.040   4.063
12056W        W12537   7.217   3.668   4.785
12057W        W12538   4.905   5.303   3.948
12058W        W12539   7.071   4.640   4.938
12059W        W12540   5.763   5.810   3.815
12060W        W12541   6.699   6.010   6.563
12061W        W12542   6.353   6.711   4.030
12062W        W12543   4.968   4.386   6.936
12063W        W12544   4.788   4.970   6.177
12064W        W12545   6.880   6.465   6.454
12065W        W12546   5.980   4.415   6.831
12066W        W12547   3.824   4.886   6.608
12067W        W12548   5.584   5.363   6.334
12068W        W12549   3.941   6.121   4.991
12069W        W12550   4.088   5.418   5.881
12070W        W12551   6.405   5.704   6.231
12071W        W12552   6.177   7.084   7.042
12072W        W12553   6.073   4.823   6.595
12073W        W12554   6.350   6.877   5.000
12074W        W12555   5.352   6.597   6.323
12075W        W12556   4.837   6.952   5.592
12076W        W12557   6.642   6.123   6.011
12077W        W12558   5.692   6.195   7.148
12078W        W12559   4.297   6.148   5.487
12079W        W12560   6.643   5.907   5.132
12080W        W12561   6.284   6.973   5.883
12081W        W12562   4.262   6.702   5.753
12082W        W12563   5.283   4.754   6.963
12083W        W12564   5.734   6.920   4.474
12084W        W12565   5.042   6.175   7.112
12085W        W12566   5.168   6.413   4.489
12086W        W12567   4.389   5.153   3.748
12087W        W12568   3.728   7.239  10.648
12088W        W12569   4.104   6.132  10.171
12089W        W12570   6.809   5.862   7.941
12090W        W12571   6.939   6.947   9.968
12091W        W12572   4.857   6.938   7.494
12092W        W12573   4.940   5.090   8.477
12093W        W12574   5.446   5.753   8.075
12094W        W12575   5.121   6.845  10.430
12095W        W12576   3.770   4.406  10.393
12096W        W12577   4.532   3.686  10.195
12097W        W12578   6.226   4.074   9.082
12098W        W12579   5.875   4.945   7.652
12099W        W12580   6.445   4.379  10.743
12100W        W12581   3.811   4.171   9.868
12101W        W12582   3.910   6.790  10.889
12102W        W12583   5.432   6.180   7.621
12103W        W12584   3.864   4.963   9.314
12104W        W12585   4.757   4.854  10.551
12105W        W12586   6.980   5.756   9.909
12106W        W12587   5.288   5.089   8.936
12107W        W12588   5.834   6.428   9.305
12108W        W12589   4.334   5.862   9.537
12109W        W12590   3.693   5.390   9.108
12110W        W12591   4.729   5.362  10.300
12111W        W12592   7.000   5.145  10.554
12112W        W12593   4.616   6.589   8.999
12113W        W12594   5.737   6.278  10.133
12114W        W12595   4.957   4.918   9.358
12115W        W12596   5.249   5.702   9.001
12116W        W12597   6.246   6.475  10.849
12117W        W12598   5.325   5.795  10.859
12118W        W12599   5.306   5.511  10.337
12119W        W12600   3.715   4.902  10.859
12120W        W12601   6.547   6.437  10.458
12121W        W12602   4.128   4.019   8.456
12122W        W12603   4.655   6.277   9.455
12123W        W12604   7.118   6.060   8.745
12124W        W12605   6.531   4.460   9.312
12125W        W12606   6.816   4.413   7.407
12126W        W12607   7.281   5.214   9.713
12127W        W12608   5.248   6.921   9.466
12128W        W12609   7.022   6.387   7.904
12129W        W12610   4.151   7.173   7.658
12130W        W12611   4.544   7.219   8.334
12131W        W12612   4.341   3.973   9.760
12132W        W12613   6.964   4.991  10.035
12133W        W12614   6.369   5.413   8.494
12134W        W12615   6.335   5.101   7.521
12135W        W12616   5.543   6.245   9.661
12136W        W12617   5.349   4.575   8.860
12137W        W12618   5.949   6.662   9.854
12138W        W12619   6.820   5.453   8.276
12139W        W12620   5.722   4.111   8.292
12140W        W12621   4.379   6.805   7.975
12141W        W12622   3.750   4.304   8.574
12142W        W12623   6.536   4.911   9.048
12143W        W12624   3.994   6.528   8.963
12144W        W12625   5.335   6.878   7.833
12145W        W12626   6.727   4.904   7.297
12146W        W12627   3.750   6.662   9.461
12147W        W12628   4.541   6.234   9.941
12148W        W12629   4.914   5.594   8.560
12149W        W12630   4.936   3.999   9.653
12150W        W12631   7.165   3.761   8.950
12151W        W12632   4.384   5.633   7.418
12152W        W12633   4.039   4.666   7.597
12153W        W12634   4.101   6.622   8.391
12154W        W12635   5.232   6.105   8.639
12155W        W12636   6.564   6.964  10.353
12156W        W12637   5.490   4.606   8.037
12157W        W12638   6.873   7.004   8.809
12158W        W12639   6.550   4.857  10.407
12159W        W12640   7.263   6.513   8.541
12160W        W12641   5.890   5.805  10.025
12161W        W12642   3.656   5.356   8.231
12162W        W12643   4.767   5.771   9.804
12163W        W12644   5.971   5.035   8.182
12164W        W12645   5.848   5.525   8.286
12165W        W12646   4.191   4.945   9.760
12166W        W12647   4.176   4.821  10.682
12167W        W12648   4.066   3.738   8.841
12168W        W12649   5.834   4.085   9.402
12169W        W12650   5.482   4.270  10.565
12170W        W12651   5.837   4.419   7.743
12171W        W12652   7.020   6.812  10.497
12172W        W12653   5.987   3.893  10.536
12173W        W12654   7.006   6.194  10.658
12174W        W12655   6.436   4.361  10.254
12175W        W12656   6.236   4.299   8.524
12176W        W12657   6.629   5.433  10.928
12177W        W12658   4.369   7.009   8.914
12178W        W12659   5.027   4.726   7.900
12179W        W12660   4.596   4.010  10.564
12180W        W12661   6.648   4.494   8.245
12181W        W12662   7.015   4.976   8.190
12182W        W12663   4.758   7.193  10.661
12183W        W12664   4.684   3.729   7.896
12184W        W12665   7.005   4.263   8.931
12185W        W12666   7.155   6.512   7.376
12186W        W12667   4.062   5.715   9.078
12187W        W12668   5.979   4.302   7.308
12188W        W12669   7.113   6.634   9.028
12189W        W12670   7.152   3.828   9.778
12190W        W12671   5.597   5.040  10.332
12191W        W12672   5.690   6.379   8.035
12192W        W12673   6.090   5.673  10.775
12193W        W12674   5.764   3.650   9.084
12194W        W12675   4.376   4.553   9.147
12195W        W12676   3.930   5.753   9.921
12196W        W12677   5.789   6.946   8.627
12197W        W12678   6.983   4.543   9.499
12198W        W12679   5.620   6.890  10.266
12199W        W12680   6.963   5.949   7.471
12200W        W12681   5.398   5.432   8.532
12201W        W12682   7.250   3.943  10.273
12202W        W12683   5.399   5.778   9.867
12203W        W12684   5.616   4.664   9.312
12204W        W12685   6.468   4.962   8.150
12205W        W12686   6.755   4.695   7.792
12206W        W12687   6.564   6.735   8.181
12207W        W12688   6.398   6.338   8.977
12208W        W12689   6.294   5.417   7.955
12209W        W12690   5.727   5.627   8.941
12210W        W12691   6.608   5.415   9.008
12211W        W12692   3.983   4.430   9.432
12212W        W12693   6.761   5.482  10.259
12213W        W12694   7.112   7.100   9.405
12214W        W12695   5.042   6.544   8.807
12215W        W12696   6.049   7.077  10.131
12216W        W12697   6.043   4.407   9.895
12217W        W12698   5.250   7.115   9.956
12218W        W12699   6.947   4.069   8.422
12219W        W12700   6.738   5.388   9.723
12220W        W12701   3.721   4.709   9.761
12221W        W12702   6.581   4.504   8.779
12222W        W12703   6.992   4.655  10.556
12223W        W12704   5.877   6.354   8.774
12224W        W12705   5.133   6.945   8.387
12225W        W12706   4.248   4.125   7.645
12226W        W12707   5.352   3.779   9.455
12227W        W12708   4.380   6.899   7.303
12228W        W12709   4.754   5.365   8.054
12229W        W12710   5.408   5.994  10.367
12230W        W12711   5.238   4.352   8.357
12231W        W12712   6.594   3.949   8.785
12232W        W12713   6.314   7.231   9.113
12233W        W12714   5.726   6.879   9.453
12234W        W12715   5.122   5.916   9.414
12235W        W12716   6.892   6.639   9.540
12236W        W12717   4.586   4.142   8.309
12237W        W12718   5.108   6.439   9.269
12238W        W12719   4.591   4.370   7.334
12239W        W12720   5.392   4.979   9.728
12240W        W12721   6.240   3.845   9.598
12241W        W12722   3.660   5.688   9.483
12242W        W12723   5.364   5.506   7.641
12243W        W12724   4.632   3.821   7.411
12244W        W12725   5.370   4.902   8.462
12245W        W12726   6.340   3.878  10.161
12246W        W12727   4.928   5.890  10.270
12247W        W12728   5.732   5.672  10.487
12248W        W12729   6.349   5.702  10.380
12249W        W12730   5.633   3.842  10.885
12250W        W12731   4.855   4.458   9.278
12251W        W12732   4.281   4.414   8.676
12252W        W12733   4.067   7.126   8.352
12253W        W12734   5.399   6.456  10.477
12254W        W12735   4.434   5.941   7.836
12255W        W12736   6.114   5.326   9.057
12256W        W12737   6.394   5.125   9.456
12257W        W12738   5.599   5.799   9.390
12258W        W12739   6.069   6.173   7.522
12259W        W12740   5.741   4.194   8.850
12260W        W12741   7.220   4.472   8.118
12261W        W12742   3.714   7.061  10.149
12262W        W12743   4.131   6.287   9.681
12263W        W12744   3.698   7.133   7.913
12264W        W12745   5.597   4.403   9.719
12265W        W12746   4.960   6.426   7.568
12266W        W12747   6.865   6.808   7.754
12267W        W12748   5.840   5.461   7.768
12268W        W12749   4.683   4.652   8.285
12269W        W12750   5.515   4.562   7.337
12270W        W12751   6.099   6.127  10.515
12271W        W12752   6.452   4.033   8.132
12272W        W12753   3.782   3.881   7.580
12273W        W12754   5.068   6.200   9.870
12274W        W12755   4.867   6.116   8.962
12275W        W12756   4.609   6.068   7.360
12276W        W12757   3.850   6.309   8.128
12277W        W12758   4.354   5.379  10.570
12278W        W12759   5.058   3.939  10.756
12279W        W12760   5.767   4.081  10.112
12280W        W12761   4.962   3.849   8.393
12281W        W12762   6.021   3.926   7.898
12282W        W12763   3.966   3.858   9.475
12283W        W12764   4.014   4.821   8.845
12284W        W12765   6.703   3.929   9.251
12285W        W12766   4.125   4.427   8.065
12286W        W12767   6.696   4.115   9.681
12287W        W12768   7.092   5.318   7.366
12288W        W12769   4.384   4.076   9.185
12289W        W12770   5.498   4.648  10.125
12290W        W12771   3.646   4.338   7.603
12291W        W12772   4.432   5.727  10.164
12292W        W12773   5.790   5.125   9.343
12293W        W12774   5.657   7.204   7.639
12294W        W12775   3.803   5.711   7.336
12295W        W12776   4.538   6.122  10.462
12296W        W12777   4.059   5.289  10.093
12297W        W12778   5.050   5.394   9.887
12298W        W12779   6.818   3.753  10.149
12299W        W12780   7.216   5.363  10.140
12300W        W12781   7.204   5.563   7.826
12301W        W12782   6.067   5.895   7.925
12302W        W12783   6.541   7.195   7.620
12303W        W12784   5.718   5.185  10.762
12304W        W12785   4.048   6.152  10.802
12305W        W12786   7.254   4.074  10.754
12306W        W12787   6.972   5.002   9.375
12307W        W12788   5.280   7.132  10.852
12308W        W12789   5.135   3.761   7.579
12309W        W12790   6.674   6.360   7.522
12310W        W12791   4.443   4.453  10.408
12311W        W12792   4.877   6.447  10.270
12312W        W12793   7.003   4.438  10.068
12313W        W12794   6.214   7.097   8.036
12314W        W12795   6.453   5.716   9.403
12315W        W12796   4.703   4.132  10.070
12316W        W12797   5.172   5.201  10.827
12317W        W12798   4.675   6.380   8.021
12318W        W12799   6.430   5.878   8.285
12319W        W12800   4.198   4.504  10.009
12320W        W12801   5.527   6.566   8.473
12321W        W12802   7.277   5.126   8.654
12322W        W12803   5.499   3.759  10.373
12323W        W12804   6.279   6.464   9.452
12324W        W12805   6.582   6.808   9.160
12325W        W12806   5.801   6.610   7.588
12326W        W12807   3.811   6.502  10.430
12327W        W12808   4.554   4.494   9.668
12328W        W12809   4.524   3.842   8.778
12329W        W12810   6.145   4.684   9.470
12330W        W12811   4.943   5.855   7.670
12331W        W12812   6.941   5.797   9.169
12332W        W12813   4.268   6.555  10.592
12333W        W12814   6.655   7.237   8.389
12334W        W12815   4.754   4.257   8.834
12335W        W12816   4.523   5.750   8.924
12336W        W12817   4.836   7.161   9.674
12337W        W12818   6.903   7.257  10.706
12338W        W12819   6.062   5.445   9.639
12339W        W12820   3.911   5.243   7.554
12340W        W12821   7.045   6.901   8.251
12341W        W12822   6.882   4.225   7.870
12342W        W12823   5.021   3.744  10.273
12343W        W12824   6.727   6.546   8.731
12344W        W12825   6.756   5.102   8.636
12345W        W12826   4.873   4.775   8.852
12346W        W12827   5.118   5.037  10.176
12347W        W12828   6.229   6.190  10.039
12348W        W12829   4.879   4.644  10.151
12349W        W12830   4.858   7.110   8.767
12350W        W12831   4.175   7.069  10.401
12351W        W12832   4.287   6.430   7.531
12352W        W12833   6.804   6.188   8.341
12353W        W12834   4.408   4.980  10.227
12354W        W12835   7.181   4.910   7.708
12355W        W12836   4.926   5.967   8.179
12356W        W12837   6.025   5.349  10.260
12357W        W12838   5.916   4.977   9.804
12358W        W12839   4.476   5.349   9.833
12359W        W12840   6.686   7.237   9.662
12360W        W12841   6.477   3.871  10.656
12361W        W12842   4.141   4.021  10.243
12362W        W12843   4.480   5.044   9.296
12363W        W12844   4.849   4.858   7.418
12364W        W12845   3.652   6.617   9.963
12365W        W12846   5.237   5.326   9.406
12366W        W12847   5.060   4.351   7.511
12367W        W12848   4.195   5.167   8.292
12368W        W12849   3.966   7.019   9.729
12369W        W12850   6.761   5.245   7.837
12370W        W12851   6.856   4.161  10.523
12371W        W12852   6.292   6.370   8.486
12372W        W12853   3.890   5.294  10.663
12373W        W12854   6.856   3.758   7.959
12374W        W12855   6.376   6.233   7.970
12375W        W12856   5.278   5.291   8.055
12376W        W12857   6.465   4.095   7.578
12377W        W12858   6.530   4.702   9.764
12378W        W12859   4.239   5.295   8.971
12379W        W12860   4.533   6.234   8.620
12380W        W12861   6.296   4.854   8.585
12381W        W12862   5.319   4.233   9.281
12382W        W12863   7.281   6.144   9.792
12383W        W12864   7.199   4.131   9.353
12384W        W12865   3.738   6.961   8.729
12385W        W12866   4.247   6.148   8.265
12386W        W12867   4.162   3.765  10.818
12387W        W12868   5.281   6.618  10.920
12388W        W12869   7.036   5.586   8.710
12389W        W12870   6.390   5.763   7.590
12390W        W12871   5.685   7.284   9.802
12391W        W12872   6.542   6.006  10.839
12392W        W12873   5.357   3.716   8.119
12393W        W12874   6.070   4.585   8.978
12394W        W12875   3.756   6.172   9.310
12395W        W12876   5.009   4.134   7.951
12396W        W12877   4.813   5.618  10.800
12397W        W12878   5.807   4.599   8.514
12398W        W12879   6.012   6.009   9.636
12399W        W12880   4.166   6.614  10.071
12400W        W12881   4.757   6.597  10.794
12401W        W12882   4.608   4.394   7.808
12402W        W12883   6.125   4.536   8.133
12403W        W12884   6.083   6.644  10.370
12404W        W12885   4.768   5.236   8.969
12405W        W12886   4.423   6.934   9.834
12406W        W12887   7.168   7.051   7.435
12407W        W12888   4.031   5.723  10.431
12408W        W12889   6.026   5.985   9.119
12409W        W12890   4.462   5.634   8.361
12410W        W12891   4.833   6.641   9.756
12411W        W12892   5.211   4.060   8.797
12412W        W12893   3.822   6.044   7.727
12413W        W12894   5.341   4.995   7.597
12414W        W12895   3.987   5.544   8.616
12415W        W12896   5.277   4.186  10.080
12416W        W12897   6.949   3.895   7.507
12417W        W12898   7.042   5.641  10.606
12418W        W12899   5.696   6.898  10.758
12419W        W12900   7.254   5.992  10.280
12420W        W12901   6.662   6.790  10.891
12421W        W12902   4.401   7.246   9.369
12422W        W12903   7.260   5.868   8.243
12423W        W12904   5.790   5.135   8.756
12424W        W12905   5.557   3.747   8.646
12425W        W12906   4.616   6.731   8.483
12426W        W12907   5.115   4.472   9.708
12427W        W12908   4.815   3.841   9.177
12428W        W12909   3.878   6.663   7.725
12429W        W12910   5.694   6.027   8.443
12430W        W12911   4.569   6.822  10.322
12431W        W12912   4.046   5.645   8.018
12432W        W12913   3.931   4.188   9.017
12433W        W12914   5.479   6.153   9.074
12434W        W12915   3.731   4.007   8.094
12435W        W12916   6.395   5.213  10.021
12436W        W12917   6.272   4.599   7.593
12437W        W12918   6.789   6.271   9.241
12438W        W12919   5.450   6.755   9.072
12439W        W12920   4.862   6.859   7.983
12440W        W12921   6.144   3.762   7.413
12441W        W12922   3.944   7.022   9.154
12442W        W12923   6.141   4.780  10.789
12443W        W12924   4.124   4.310  10.788
12444W        W12925   3.855   4.910   8.121
12445W        W12926   4.546   4.899   7.846
12446W        W12927   6.309   5.226  10.663
12447W        W12928   4.652   5.507   9.372
12448W        W12929   6.126   3.793   8.492
12449W        W12930   5.257   7.224   8.995
12450W        W12931   6.471   6.686   9.932
12451W        W12932   6.055   6.835   9.043
12452W        W12933   6.074   5.815   8.637
12453W        W12934   5.536   4.040   7.708
12454W        W12935   7.217   3.668   8.430
12455W        W12936   4.905   5.303   7.593
12456W        W12937   7.071   4.640   8.583
12457W        W12938   5.763   5.810   7.460
12458W        W12939   6.699   6.010  10.208
12459W        W12940   6.353   6.711   7.675
12460W        W12941   4.968   4.386  10.581
12461W        W12942   4.788   4.970   9.822
12462W        W12943   6.880   6.465  10.099
12463W        W12944   5.980   4.415  10.476
12464W        W12945   3.824   4.886  10.253
12465W        W12946   5.584   5.363   9.979
12466W        W12947   3.941   6.121   8.636
12467W        W12948   4.088   5.418   9.526
12468W        W12949   6.405   5.704   9.876
12469W        W12950   6.177   7.084  10.687
12470W        W12951   6.073   4.823  10.240
12471W        W12952   6.350   6.877   8.645
12472W        W12953   5.352   6.597   9.968
12473W        W12954   4.837   6.952   9.237
12474W        W12955   6.642   6.123   9.656
12475W        W12956   5.692   6.195  10.793
12476W        W12957   4.297   6.148   9.132
12477W        W12958   6.643   5.907   8.777
12478W        W12959   6.284   6.973   9.528
12479W        W12960   4.262   6.702   9.398
12480W        W12961   5.283   4.754  10.608
12481W        W12962   5.734   6.920   8.119
12482W        W12963   5.042   6.175  10.757
12483W        W12964   5.168   6.413   8.134
12484W        W12965   4.389   5.153   7.393
12485W        W12966   3.728   7.239  14.292
12486W        W12967   4.104   6.132  13.815
12487W        W12968   6.809   5.862  11.585
12488W        W12969   6.939   6.947  13.612
12489W        W12970   4.857   6.938  11.138
12490W        W12971   4.940   5.090  12.121
12491W        W12972   5.446   5.753  11.719
12492W        W12973   5.121   6.845  14.074
12493W        W12974   3.770   4.406  14.037
12494W        W12975   4.532   3.686  13.839
12495W        W12976   6.226   4.074  12.726
12496W        W12977   5.875   4.945  11.296
12497W        W12978   6.445   4.379  14.387
12498W        W12979   3.811   4.171  13.512
12499W        W12980   3.910   6.790  14.533
12500W        W12981   5.432   6.180  11.265
12501W        W12982   3.864   4.963  12.958
12502W        W12983   4.757   4.854  14.195
12503W        W12984   7.216   4.713  12.694
12504W        W12985   5.288   5.089  12.580
12505W        W12986   5.834   6.428  12.949
12506W        W12987   4.334   5.862  13.181
12507W        W12988   3.693   5.390  12.752
12508W        W12989   4.729   5.362  13.944
12509W        W12990   7.000   5.145  14.198
12510W        W12991   4.616   6.589  12.643
12511W        W12992   5.737   6.278  13.777
12512W        W12993   4.957   4.918  13.002
12513W        W12994   5.249   5.702  12.645
12514W        W12995   6.246   6.475  14.493
12515W        W12996   5.325   5.795  14.503
12516W        W12997   5.306   5.511  13.981
12517W        W12998   3.715   4.902  14.503
12518W        W12999   6.547   6.437  14.102
12519W        W13000   4.128   4.019  12.100
12520W        W13001   4.655   6.277  13.099
12521W        W13002   7.118   6.060  12.389
12522W        W13003   6.531   4.460  12.956
12523W        W13004   6.816   4.413  11.051
12524W        W13005   7.281   5.214  13.357
12525W        W13006   5.248   6.921  13.110
12526W        W13007   7.022   6.387  11.548
12527W        W13008   4.151   7.173  11.302
12528W        W13009   4.544   7.219  11.978
12529W        W13010   4.341   3.973  13.404
12530W        W13011   6.964   4.991  13.679
12531W        W13012   6.369   5.413  12.138
12532W        W13013   6.335   5.101  11.165
12533W        W13014   5.543   6.245  13.305
12534W        W13015   5.349   4.575  12.504
12535W        W13016   5.949   6.662  13.498
12536W        W13017   6.820   5.453  11.920
12537W        W13018   5.722   4.111  11.936
12538W        W13019   4.379   6.805  11.619
12539W        W13020   3.750   4.304  12.218
12540W        W13021   6.536   4.911  12.692
12541W        W13022   3.994   6.528  12.607
12542W        W13023   5.335   6.878  11.477
12543W        W13024   6.727   4.904  10.941
12544W        W13025   3.750   6.662  13.105
12545W        W13026   4.541   6.234  13.585
12546W        W13027   4.914   5.594  12.204
12547W        W13028   4.936   3.999  13.297
12548W        W13029   7.165   3.761  12.594
12549W        W13030   4.384   5.633  11.062
12550W        W13031   4.039   4.666  11.241
12551W        W13032   4.101   6.622  12.035
12552W        W13033   5.232   6.105  12.283
12553W        W13034   6.564   6.964  13.997
12554W        W13035   5.490   4.606  11.681
12555W        W13036   6.873   7.004  12.453
12556W        W13037   6.550   4.857  14.051
12557W        W13038   7.263   6.513  12.185
12558W        W13039   5.890   5.805  13.669
12559W        W13040   3.656   5.356  11.875
12560W        W13041   4.767   5.771  13.448
12561W        W13042   5.971   5.035  11.826
12562W        W13043   5.848   5.525  11.930
12563W        W13044   4.191   4.945  13.404
12564W        W13045   4.176   4.821  14.326
12565W        W13046   4.066   3.738  12.485
12566W        W13047   5.834   4.085  13.046
12567W        W13048   5.482   4.270  14.209
12568W        W13049   5.837   4.419  11.387
12569W        W13050   7.020   6.812  14.141
12570W        W13051   5.987   3.893  14.180
12571W        W13052   7.006   6.194  14.302
12572W        W13053   6.436   4.361  13.898
12573W        W13054   6.236   4.299  12.168
12574W        W13055   6.629   5.433  14.572
12575W        W13056   4.369   7.009  12.558
12576W        W13057   5.027   4.726  11.544
12577W        W13058   4.596   4.010  14.208
12578W        W13059   6.648   4.494  11.889
12579W        W13060   7.015   4.976  11.834
12580W        W13061   4.758   7.193  14.305
12581W        W13062   4.684   3.729  11.540
12582W        W13063   7.005   4.263  12.575
12583W        W13064   7.155   6.512  11.020
12584W        W13065   4.062   5.715  12.722
12585W        W13066   5.979   4.302  10.952
12586W        W13067   7.113   6.634  12.672
12587W        W13068   7.152   3.828  13.422
12588W        W13069   5.597   5.040  13.976
12589W        W13070   5.690   6.379  11.679
12590W        W13071   6.090   5.673  14.419
12591W        W13072   5.764   3.650  12.728
12592W        W13073   4.376   4.553  12.791
12593W        W13074   3.930   5.753  13.565
12594W        W13075   5.789   6.946  12.271
12595W        W13076   6.983   4.543  13.143
12596W        W13077   5.620   6.890  13.910
12597W        W13078   6.963   5.949  11.115
12598W        W13079   5.398   5.432  12.176
12599W        W13080   7.250   3.943  13.917
12600W        W13081   5.399   5.778  13.511
12601W        W13082   5.616   4.664  12.956
12602W        W13083   6.468   4.962  11.794
12603W        W13084   6.755   4.695  11.436
12604W        W13085   6.564   6.735  11.825
12605W        W13086   6.398   6.338  12.621
12606W        W13087   6.294   5.417  11.599
12607W        W13088   5.727   5.627  12.585
12608W        W13089   6.608   5.415  12.652
12609W        W13090   3.983   4.430  13.076
12610W        W13091   6.761   5.482  13.903
12611W        W13092   7.112   7.100  13.049
12612W        W13093   5.042   6.544  12.451
12613W        W13094   6.049   7.077  13.775
12614W        W13095   6.043   4.407  13.539
12615W        W13096   5.250   7.115  13.600
12616W        W13097   6.947   4.069  12.066
12617W        W13098   6.738   5.388  13.367
12618W        W13099   3.721   4.709  13.405
12619W        W13100   6.581   4.504  12.423
12620W        W13101   6.992   4.655  14.200
12621W        W13102   5.877   6.354  12.418
12622W        W13103   5.133   6.945  12.031
12623W        W13104   4.248   4.125  11.289
12624W        W13105   5.352   3.779  13.099
12625W        W13106   4.380   6.899  10.947
12626W        W13107   4.754   5.365  11.698
12627W        W13108   5.408   5.994  14.011
12628W        W13109   5.238   4.352  12.001
12629W        W13110   6.594   3.949  12.429
12630W        W13111   6.314   7.231  12.757
12631W        W13112   5.726   6.879  13.097
12632W        W13113   5.122   5.916  13.058
12633W        W13114   6.892   6.639  13.184
12634W        W13115   4.586   4.142  11.953
12635W        W13116   5.108   6.439  12.913
12636W        W13117   4.591   4.370  10.978
12637W        W13118   5.392   4.979  13.372
12638W        W13119   6.240   3.845  13.242
12639W        W13120   3.660   5.688  13.127
12640W        W13121   5.364   5.506  11.285
12641W        W13122   4.632   3.821  11.055
12642W        W13123   5.370   4.902  12.106
12643W        W13124   6.340   3.878  13.805
12644W        W13125   4.928   5.890  13.914
12645W        W13126   5.732   5.672  14.131
12646W        W13127   6.349   5.702  14.024
12647W        W13128   5.633   3.842  14.529
12648W        W13129   4.855   4.458  12.922
12649W        W13130   4.281   4.414  12.320
12650W        W13131   4.067   7.126  11.996
12651W        W13132   4.434   5.941  11.480
12652W        W13133   6.114   5.326  12.701
12653W        W13134   6.394   5.125  13.100
12654W        W13135   5.599   5.799  13.034
12655W        W13136   6.069   6.173  11.166
12656W        W13137   5.741   4.194  12.494
12657W        W13138   7.220   4.472  11.762
12658W        W13139   3.714   7.061  13.793
12659W        W13140   4.131   6.287  13.325
12660W        W13141   3.698   7.133  11.557
12661W        W13142   5.597   4.403  13.363
12662W        W13143   4.960   6.426  11.212
12663W        W13144   6.865   6.808  11.398
12664W        W13145   5.840   5.461  11.412
12665W        W13146   4.683   4.652  11.929
12666W        W13147   5.515   4.562  10.981
12667W        W13148   6.099   6.127  14.159
12668W        W13149   6.452   4.033  11.776
12669W        W13150   3.782   3.881  11.224
12670W        W13151   5.068   6.200  13.514
12671W        W13152   4.867   6.116  12.606
12672W        W13153   4.609   6.068  11.004
12673W        W13154   3.850   6.309  11.772
12674W        W13155   4.354   5.379  14.214
12675W        W13156   5.058   3.939  14.400
12676W        W13157   5.767   4.081  13.756
12677W        W13158   4.962   3.849  12.037
12678W        W13159   6.021   3.926  11.542
12679W        W13160   3.966   3.858  13.119
12680W        W13161   4.014   4.821  12.489
12681W        W13162   6.703   3.929  12.895
12682W        W13163   4.125   4.427  11.709
12683W        W13164   6.696   4.115  13.325
12684W        W13165   7.092   5.318  11.010
12685W        W13166   4.384   4.076  12.829
12686W        W13167   5.498   4.648  13.769
12687W        W13168   3.646   4.338  11.247
12688W        W13169   4.432   5.727  13.808
12689W        W13170   5.790   5.125  12.987
12690W        W13171   5.657   7.204  11.283
12691W        W13172   3.803   5.711  10.980
12692W        W13173   4.538   6.122  14.106
12693W        W13174   4.059   5.289  13.737
12694W        W13175   5.050   5.394  13.531
12695W        W13176   6.818   3.753  13.793
12696W        W13177   7.216   5.363  13.784
12697W        W13178   7.204   5.563  11.470
12698W        W13179   6.067   5.895  11.569
12699W        W13180   6.541   7.195  11.264
12700W        W13181   5.718   5.185  14.406
12701W        W13182   4.048   6.152  14.446
12702W        W13183   7.254   4.074  14.398
12703W        W13184   6.972   5.002  13.019
12704W        W13185   5.280   7.132  14.496
12705W        W13186   5.135   3.761  11.223
12706W        W13187   6.674   6.360  11.166
12707W        W13188   4.443   4.453  14.052
12708W        W13189   4.877   6.447  13.914
12709W        W13190   7.003   4.438  13.712
12710W        W13191   6.214   7.097  11.680
12711W        W13192   6.453   5.716  13.047
12712W        W13193   4.703   4.132  13.714
12713W        W13194   5.172   5.201  14.471
12714W        W13195   4.675   6.380  11.665
12715W        W13196   6.430   5.878  11.929
12716W        W13197   4.198   4.504  13.653
12717W        W13198   5.527   6.566  12.117
12718W        W13199   7.277   5.126  12.298
12719W        W13200   5.499   3.759  14.017
12720W        W13201   6.279   6.464  13.096
12721W        W13202   6.582   6.808  12.804
12722W        W13203   5.801   6.610  11.232
12723W        W13204   3.811   6.502  14.074
12724W        W13205   4.554   4.494  13.312
12725W        W13206   4.524   3.842  12.422
12726W        W13207   6.145   4.684  13.114
12727W        W13208   4.943   5.855  11.314
12728W        W13209   6.941   5.797  12.813
12729W        W13210   4.268   6.555  14.236
12730W        W13211   6.655   7.237  12.033
12731W        W13212   4.754   4.257  12.478
12732W        W13213   4.523   5.750  12.568
12733W        W13214   4.836   7.161  13.318
12734W        W13215   6.903   7.257  14.350
12735W        W13216   6.062   5.445  13.283
12736W        W13217   3.911   5.243  11.198
12737W        W13218   7.045   6.901  11.895
12738W        W13219   6.882   4.225  11.514
12739W        W13220   5.021   3.744  13.917
12740W        W13221   6.727   6.546  12.375
12741W        W13222   6.756   5.102  12.280
12742W        W13223   4.873   4.775  12.496
12743W        W13224   5.118   5.037  13.820
12744W        W13225   6.229   6.190  13.683
12745W        W13226   4.879   4.644  13.795
12746W        W13227   4.858   7.110  12.411
12747W        W13228   4.175   7.069  14.045
12748W        W13229   4.287   6.430  11.175
12749W        W13230   6.804   6.188  11.985
12750W        W13231   4.408   4.980  13.871
12751W        W13232   7.181   4.910  11.352
12752W        W13233   4.926   5.967  11.823
12753W        W13234   6.025   5.349  13.904
12754W        W13235   5.916   4.977  13.448
12755W        W13236   4.476   5.349  13.477
12756W        W13237   6.686   7.237  13.306
12757W        W13238   6.477   3.871  14.300
12758W        W13239   4.141   4.021  13.887
12759W        W13240   4.480   5.044  12.940
12760W        W13241   4.849   4.858  11.062
12761W        W13242   3.652   6.617  13.607
12762W        W13243   5.237   5.326  13.050
12763W        W13244   5.060   4.351  11.155
12764W        W13245   4.195   5.167  11.936
12765W        W13246   3.966   7.019  13.373
12766W        W13247   6.761   5.245  11.481
12767W        W13248   6.856   4.161  14.167
12768W        W13249   6.292   6.370  12.130
12769W        W13250   3.890   5.294  14.307
12770W        W13251   6.856   3.758  11.603
12771W        W13252   6.376   6.233  11.614
12772W        W13253   5.278   5.291  11.699
12773W        W13254   6.465   4.095  11.222
12774W        W13255   6.530   4.702  13.408
12775W        W13256   4.239   5.295  12.615
12776W        W13257   4.533   6.234  12.264
12777W        W13258   6.296   4.854  12.229
12778W        W13259   5.319   4.233  12.925
12779W        W13260   7.199   4.131  12.997
12780W        W13261   3.738   6.961  12.373
12781W        W13262   4.247   6.148  11.909
12782W        W13263   4.162   3.765  14.462
12783W        W13264   5.281   6.618  14.564
12784W        W13265   7.036   5.586  12.354
12785W        W13266   6.390   5.763  11.234
12786W        W13267   5.685   7.284  13.446
12787W        W13268   6.542   6.006  14.483
12788W        W13269   5.357   3.716  11.763
12789W        W13270   6.070   4.585  12.622
12790W        W13271   3.756   6.172  12.954
12791W        W13272   5.009   4.134  11.595
12792W        W13273   4.813   5.618  14.444
12793W        W13274   5.807   4.599  12.158
12794W        W13275   6.012   6.009  13.280
12795W        W13276   4.166   6.614  13.715
12796W        W13277   4.757   6.597  14.438
12797W        W13278   4.608   4.394  11.452
12798W        W13279   6.125   4.536  11.777
12799W        W13280   6.083   6.644  14.014
12800W        W13281   4.768   5.236  12.613
12801W        W13282   4.423   6.934  13.478
12802W        W13283   4.031   5.723  14.075
12803W        W13284   6.026   5.985  12.763
12804W        W13285   4.462   5.634  12.005
12805W        W13286   4.833   6.641  13.400
12806W        W13287   5.211   4.060  12.441
12807W        W13288   3.822   6.044  11.371
12808W        W13289   5.341   4.995  11.241
12809W        W13290   3.987   5.544  12.260
12810W        W13291   5.277   4.186  13.724
12811W        W13292   6.949   3.895  11.151
12812W        W13293   7.042   5.641  14.250
12813W        W13294   5.696   6.898  14.402
12814W        W13295   7.254   5.992  13.924
12815W        W13296   6.662   6.790  14.535
12816W        W13297   4.401   7.246  13.013
12817W        W13298   7.260   5.868  11.887
12818W        W13299   5.790   5.135  12.400
12819W        W13300   5.557   3.747  12.290
12820W        W13301   4.616   6.731  12.127
12821W        W13302   5.115   4.472  13.352
12822W        W13303   4.815   3.841  12.821
12823W        W13304   3.878   6.663  11.369
12824W        W13305   5.694   6.027  12.087
12825W        W13306   4.569   6.822  13.966
12826W        W13307   4.046   5.645  11.662
12827W        W13308   3.931   4.188  12.661
12828W        W13309   5.479   6.153  12.718
12829W        W13310   3.731   4.007  11.738
12830W        W13311   6.395   5.213  13.665
12831W        W13312   6.272   4.599  11.237
12832W        W13313   6.789   6.271  12.885
12833W        W13314   5.450   6.755  12.716
12834W        W13315   4.862   6.859  11.627
12835W        W13316   6.144   3.762  11.057
12836W        W13317   3.944   7.022  12.798
12837W        W13318   6.141   4.780  14.433
12838W        W13319   4.124   4.310  14.432
12839W        W13320   3.855   4.910  11.765
12840W        W13321   4.546   4.899  11.490
12841W        W13322   6.309   5.226  14.307
12842W        W13323   4.652   5.507  13.016
12843W        W13324   6.126   3.793  12.136
12844W        W13325   5.257   7.224  12.639
12845W        W13326   6.471   6.686  13.576
12846W        W13327   6.055   6.835  12.687
12847W        W13328   6.074   5.815  12.281
12848W        W13329   5.536   4.040  11.352
12849W        W13330   7.217   3.668  12.074
12850W        W13331   4.905   5.303  11.237
12851W        W13332   7.071   4.640  12.227
12852W        W13333   5.763   5.810  11.104
12853W        W13334   6.699   6.010  13.852
12854W        W13335   6.353   6.711  11.319
12855W        W13336   4.968   4.386  14.225
12856W        W13337   4.788   4.970  13.466
12857W        W13338   5.980   4.415  14.120
12858W        W13339   3.824   4.886  13.897
12859W        W13340   5.584   5.363  13.623
12860W        W13341   3.941   6.121  12.280
12861W        W13342   4.088   5.418  13.170
12862W        W13343   6.405   5.704  13.520
12863W        W13344   6.177   7.084  14.331
12864W        W13345   6.073   4.823  13.884
12865W        W13346   6.350   6.877  12.289
12866W        W13347   5.352   6.597  13.612
12867W        W13348   4.837   6.952  12.881
12868W        W13349   5.692   6.195  14.437
12869W        W13350   4.297   6.148  12.776
12870W        W13351   6.643   5.907  12.421
12871W        W13352   6.284   6.973  13.172
12872W        W13353   4.262   6.702  13.042
12873W        W13354   5.283   4.754  14.252
12874W        W13355   5.734   6.920  11.763
12875W        W13356   5.042   6.175  14.401
12876W        W13357   5.168   6.413  11.778
12877W        W13358   4.389   5.153  11.037
12878W        W13359   4.104   6.132  17.459
12879W        W13360   6.809   5.862  15.229
12880W        W13361   6.939   6.947  17.256
12881W        W13362   4.857   6.938  14.782
12882W        W13363   4.940   5.090  15.765
12883W        W13364   4.455   4.938  15.929
12884W        W13365   5.446   5.753  15.363
12885W        W13366   5.121   6.845  17.718
12886W        W13367   3.770   4.406  17.681
12887W        W13368   4.532   3.686  17.483
12888W        W13369   6.226   4.074  16.370
12889W        W13370   5.875   4.945  14.940
12890W        W13371   3.811   4.171  17.156
12891W        W13372   5.432   6.180  14.909
12892W        W13373   3.864   4.963  16.602
12893W        W13374   7.216   4.713  16.338
12894W        W13375   6.980   5.756  17.197
12895W        W13376   5.288   5.089  16.224
12896W        W13377   5.834   6.428  16.593
12897W        W13378   4.334   5.862  16.825
12898W        W13379   3.693   5.390  16.396
12899W        W13380   4.729   5.362  17.588
12900W        W13381   4.616   6.589  16.287
12901W        W13382   5.737   6.278  17.421
12902W        W13383   4.957   4.918  16.646
12903W        W13384   5.249   5.702  16.289
12904W        W13385   5.306   5.511  17.625
12905W        W13386   6.547   6.437  17.746
12906W        W13387   4.128   4.019  15.744
12907W        W13388   4.655   6.277  16.743
12908W        W13389   7.118   6.060  16.033
12909W        W13390   6.531   4.460  16.600
12910W        W13391   6.816   4.413  14.695
12911W        W13392   7.281   5.214  17.001
12912W        W13393   5.248   6.921  16.754
12913W        W13394   7.022   6.387  15.192
12914W        W13395   4.151   7.173  14.946
12915W        W13396   4.544   7.219  15.622
12916W        W13397   4.341   3.973  17.048
12917W        W13398   6.964   4.991  17.323
12918W        W13399   6.369   5.413  15.782
12919W        W13400   5.543   6.245  16.949
12920W        W13401   5.349   4.575  16.148
12921W        W13402   5.949   6.662  17.142
12922W        W13403   6.820   5.453  15.564
12923W        W13404   5.722   4.111  15.580
12924W        W13405   4.379   6.805  15.263
12925W        W13406   3.750   4.304  15.862
12926W        W13407   6.536   4.911  16.336
12927W        W13408   3.994   6.528  16.251
12928W        W13409   5.335   6.878  15.121
12929W        W13410   6.727   4.904  14.585
12930W        W13411   3.750   6.662  16.749
12931W        W13412   4.541   6.234  17.229
12932W        W13413   4.914   5.594  15.848
12933W        W13414   4.936   3.999  16.941
12934W        W13415   7.165   3.761  16.238
12935W        W13416   4.384   5.633  14.706
12936W        W13417   4.039   4.666  14.885
12937W        W13418   4.101   6.622  15.679
12938W        W13419   5.232   6.105  15.927
12939W        W13420   6.564   6.964  17.641
12940W        W13421   5.490   4.606  15.325
12941W        W13422   6.873   7.004  16.097
12942W        W13423   7.263   6.513  15.829
12943W        W13424   5.890   5.805  17.313
12944W        W13425   3.656   5.356  15.519
12945W        W13426   4.767   5.771  17.092
12946W        W13427   5.971   5.035  15.470
12947W        W13428   5.848   5.525  15.574
12948W        W13429   4.191   4.945  17.048
12949W        W13430   4.066   3.738  16.129
12950W        W13431   5.834   4.085  16.690
12951W        W13432   5.837   4.419  15.031
12952W        W13433   7.020   6.812  17.785
12953W        W13434   5.987   3.893  17.824
12954W        W13435   6.436   4.361  17.542
12955W        W13436   6.236   4.299  15.812
12956W        W13437   4.369   7.009  16.202
12957W        W13438   5.027   4.726  15.188
12958W        W13439   6.648   4.494  15.533
12959W        W13440   7.015   4.976  15.478
12960W        W13441   4.684   3.729  15.184
12961W        W13442   7.005   4.263  16.219
12962W        W13443   7.155   6.512  14.664
12963W        W13444   4.062   5.715  16.366
12964W        W13445   5.979   4.302  14.596
12965W        W13446   7.113   6.634  16.316
12966W        W13447   7.152   3.828  17.066
12967W        W13448   5.597   5.040  17.620
12968W        W13449   5.690   6.379  15.323
12969W        W13450   5.764   3.650  16.372
12970W        W13451   4.376   4.553  16.435
12971W        W13452   3.930   5.753  17.209
12972W        W13453   5.789   6.946  15.915
12973W        W13454   6.983   4.543  16.787
12974W        W13455   5.620   6.890  17.554
12975W        W13456   6.963   5.949  14.759
12976W        W13457   5.398   5.432  15.820
12977W        W13458   7.250   3.943  17.561
12978W        W13459   5.399   5.778  17.155
12979W        W13460   5.616   4.664  16.600
12980W        W13461   6.468   4.962  15.438
12981W        W13462   6.755   4.695  15.080
12982W        W13463   6.564   6.735  15.469
12983W        W13464   6.398   6.338  16.265
12984W        W13465   6.294   5.417  15.243
12985W        W13466   5.727   5.627  16.229
12986W        W13467   6.608   5.415  16.296
12987W        W13468   3.983   4.430  16.720
12988W        W13469   6.761   5.482  17.547
12989W        W13470   7.112   7.100  16.693
12990W        W13471   5.042   6.544  16.095
12991W        W13472   6.049   7.077  17.419
12992W        W13473   6.043   4.407  17.183
12993W        W13474   6.947   4.069  15.710
12994W        W13475   6.738   5.388  17.011
12995W        W13476   3.721   4.709  17.049
12996W        W13477   6.581   4.504  16.067
12997W        W13478   5.877   6.354  16.062
12998W        W13479   5.133   6.945  15.675
12999W        W13480   4.248   4.125  14.933
13000W        W13481   5.352   3.779  16.743
13001W        W13482   4.380   6.899  14.591
13002W        W13483   4.754   5.365  15.342
13003W        W13484   5.408   5.994  17.655
13004W        W13485   5.238   4.352  15.645
13005W        W13486   6.594   3.949  16.073
13006W        W13487   6.314   7.231  16.401
13007W        W13488   5.726   6.879  16.741
13008W        W13489   5.122   5.916  16.702
13009W        W13490   6.892   6.639  16.828
13010W        W13491   4.586   4.142  15.597
13011W        W13492   5.108   6.439  16.557
13012W        W13493   4.591   4.370  14.622
13013W        W13494   5.392   4.979  17.016
13014W        W13495   6.240   3.845  16.886
13015W        W13496   3.660   5.688  16.771
13016W        W13497   5.364   5.506  14.929
13017W        W13498   4.632   3.821  14.699
13018W        W13499   5.370   4.902  15.750
13019W        W13500   6.340   3.878  17.449
13020W        W13501   4.928   5.890  17.558
13021W        W13502   6.349   5.702  17.668
13022W        W13503   4.855   4.458  16.566
13023W        W13504   4.281   4.414  15.964
13024W        W13505   4.067   7.126  15.640
13025W        W13506   5.399   6.456  17.765
13026W        W13507   4.434   5.941  15.124
13027W        W13508   6.114   5.326  16.345
13028W        W13509   6.394   5.125  16.744
13029W        W13510   5.599   5.799  16.678
13030W        W13511   6.069   6.173  14.810
13031W        W13512   5.741   4.194  16.138
13032W        W13513   7.220   4.472  15.406
13033W        W13514   3.714   7.061  17.437
13034W        W13515   4.131   6.287  16.969
13035W        W13516   3.698   7.133  15.201
13036W        W13517   5.597   4.403  17.007
13037W        W13518   4.960   6.426  14.856
13038W        W13519   6.865   6.808  15.042
13039W        W13520   5.840   5.461  15.056
13040W        W13521   4.683   4.652  15.573
13041W        W13522   5.515   4.562  14.625
13042W        W13523   6.452   4.033  15.420
13043W        W13524   3.782   3.881  14.868
13044W        W13525   5.068   6.200  17.158
13045W        W13526   4.867   6.116  16.250
13046W        W13527   4.609   6.068  14.648
13047W        W13528   3.850   6.309  15.416
13048W        W13529   5.767   4.081  17.400
13049W        W13530   4.962   3.849  15.681
13050W        W13531   6.021   3.926  15.186
13051W        W13532   3.966   3.858  16.763
13052W        W13533   4.014   4.821  16.133
13053W        W13534   6.703   3.929  16.539
13054W        W13535   4.125   4.427  15.353
13055W        W13536   6.696   4.115  16.969
13056W        W13537   7.092   5.318  14.654
13057W        W13538   4.384   4.076  16.473
13058W        W13539   5.498   4.648  17.413
13059W        W13540   3.646   4.338  14.891
13060W        W13541   4.432   5.727  17.452
13061W        W13542   5.790   5.125  16.631
13062W        W13543   5.657   7.204  14.927
13063W        W13544   3.803   5.711  14.624
13064W        W13545   4.059   5.289  17.381
13065W        W13546   5.050   5.394  17.175
13066W        W13547   6.818   3.753  17.437
13067W        W13548   7.216   5.363  17.428
13068W        W13549   7.204   5.563  15.114
13069W        W13550   6.067   5.895  15.213
13070W        W13551   6.541   7.195  14.908
13071W        W13552   6.972   5.002  16.663
13072W        W13553   5.135   3.761  14.867
13073W        W13554   6.674   6.360  14.810
13074W        W13555   4.877   6.447  17.558
13075W        W13556   7.003   4.438  17.356
13076W        W13557   6.214   7.097  15.324
13077W        W13558   6.453   5.716  16.691
13078W        W13559   4.703   4.132  17.358
13079W        W13560   4.675   6.380  15.309
13080W        W13561   6.430   5.878  15.573
13081W        W13562   4.198   4.504  17.297
13082W        W13563   5.527   6.566  15.761
13083W        W13564   7.277   5.126  15.942
13084W        W13565   5.499   3.759  17.661
13085W        W13566   6.279   6.464  16.740
13086W        W13567   6.582   6.808  16.448
13087W        W13568   5.801   6.610  14.876
13088W        W13569   3.811   6.502  17.718
13089W        W13570   4.554   4.494  16.956
13090W        W13571   4.524   3.842  16.066
13091W        W13572   6.145   4.684  16.758
13092W        W13573   4.943   5.855  14.958
13093W        W13574   6.941   5.797  16.457
13094W        W13575   6.655   7.237  15.677
13095W        W13576   4.754   4.257  16.122
13096W        W13577   4.523   5.750  16.212
13097W        W13578   4.836   7.161  16.962
13098W        W13579   6.062   5.445  16.927
13099W        W13580   3.911   5.243  14.842
13100W        W13581   7.045   6.901  15.539
13101W        W13582   6.882   4.225  15.158
13102W        W13583   5.021   3.744  17.561
13103W        W13584   6.727   6.546  16.019
13104W        W13585   6.756   5.102  15.924
13105W        W13586   4.873   4.775  16.140
13106W        W13587   5.118   5.037  17.464
13107W        W13588   6.229   6.190  17.327
13108W        W13589   4.879   4.644  17.439
13109W        W13590   4.858   7.110  16.055
13110W        W13591   4.287   6.430  14.819
13111W        W13592   4.408   4.980  17.515
13112W        W13593   7.181   4.910  14.996
13113W        W13594   4.926   5.967  15.467
13114W        W13595   6.025   5.349  17.548
13115W        W13596   5.916   4.977  17.092
13116W        W13597   4.476   5.349  17.121
13117W        W13598   6.686   7.237  16.950
13118W        W13599   4.141   4.021  17.531
13119W        W13600   4.480   5.044  16.584
13120W        W13601   4.849   4.858  14.706
13121W        W13602   3.652   6.617  17.251
13122W        W13603   5.237   5.326  16.694
13123W        W13604   5.060   4.351  14.799
13124W        W13605   4.195   5.167  15.580
13125W        W13606   3.966   7.019  17.017
13126W        W13607   6.761   5.245  15.125
13127W        W13608   6.292   6.370  15.774
13128W        W13609   6.856   3.758  15.247
13129W        W13610   6.376   6.233  15.258
13130W        W13611   5.278   5.291  15.343
13131W        W13612   6.465   4.095  14.866
13132W        W13613   6.530   4.702  17.052
13133W        W13614   4.239   5.295  16.259
13134W        W13615   6.296   4.854  15.873
13135W        W13616   5.319   4.233  16.569
13136W        W13617   7.281   6.144  17.080
13137W        W13618   7.199   4.131  16.641
13138W        W13619   3.738   6.961  16.017
13139W        W13620   4.247   6.148  15.553
13140W        W13621   7.036   5.586  15.998
13141W        W13622   6.390   5.763  14.878
13142W        W13623   5.685   7.284  17.090
13143W        W13624   5.357   3.716  15.407
13144W        W13625   6.070   4.585  16.266
13145W        W13626   3.756   6.172  16.598
13146W        W13627   5.009   4.134  15.239
13147W        W13628   5.807   4.599  15.802
13148W        W13629   6.012   6.009  16.924
13149W        W13630   4.166   6.614  17.359
13150W        W13631   4.608   4.394  15.096
13151W        W13632   6.125   4.536  15.421
13152W        W13633   6.083   6.644  17.658
13153W        W13634   4.768   5.236  16.257
13154W        W13635   4.423   6.934  17.122
13155W        W13636   7.168   7.051  14.723
13156W        W13637   6.026   5.985  16.407
13157W        W13638   4.462   5.634  15.649
13158W        W13639   4.833   6.641  17.044
13159W        W13640   5.211   4.060  16.085
13160W        W13641   3.822   6.044  15.015
13161W        W13642   5.341   4.995  14.885
13162W        W13643   3.987   5.544  15.904
13163W        W13644   5.277   4.186  17.368
13164W        W13645   6.949   3.895  14.795
13165W        W13646   7.254   5.992  17.568
13166W        W13647   4.401   7.246  16.657
13167W        W13648   7.260   5.868  15.531
13168W        W13649   5.790   5.135  16.044
13169W        W13650   5.557   3.747  15.934
13170W        W13651   4.616   6.731  15.771
13171W        W13652   5.115   4.472  16.996
13172W        W13653   4.815   3.841  16.465
13173W        W13654   3.878   6.663  15.013
13174W        W13655   5.694   6.027  15.731
13175W        W13656   4.569   6.822  17.610
13176W        W13657   4.046   5.645  15.306
13177W        W13658   5.479   6.153  16.362
13178W        W13659   3.731   4.007  15.382
13179W        W13660   6.395   5.213  17.309
13180W        W13661   6.272   4.599  14.881
13181W        W13662   6.789   6.271  16.529
13182W        W13663   5.450   6.755  16.360
13183W        W13664   4.862   6.859  15.271
13184W        W13665   6.144   3.762  14.701
13185W        W13666   3.944   7.022  16.442
13186W        W13667   3.855   4.910  15.409
13187W        W13668   4.546   4.899  15.134
13188W        W13669   4.652   5.507  16.660
13189W        W13670   6.126   3.793  15.780
13190W        W13671   5.257   7.224  16.283
13191W        W13672   6.471   6.686  17.220
13192W        W13673   6.055   6.835  16.331
13193W        W13674   6.074   5.815  15.925
13194W        W13675   5.536   4.040  14.996
13195W        W13676   7.217   3.668  15.718
13196W        W13677   4.905   5.303  14.881
13197W        W13678   7.071   4.640  15.871
13198W        W13679   5.763   5.810  14.748
13199W        W13680   6.699   6.010  17.496
13200W        W13681   6.353   6.711  14.963
13201W        W13682   4.788   4.970  17.110
13202W        W13683   6.880   6.465  17.387
13203W        W13684   5.584   5.363  17.267
13204W        W13685   4.088   5.418  16.814
13205W        W13686   6.405   5.704  17.164
13206W        W13687   6.177   7.084  17.975
13207W        W13688   6.073   4.823  17.528
13208W        W13689   6.350   6.877  15.933
13209W        W13690   5.352   6.597  17.256
13210W        W13691   4.837   6.952  16.525
13211W        W13692   6.642   6.123  16.944
13212W        W13693   4.297   6.148  16.420
13213W        W13694   6.643   5.907  16.065
13214W        W13695   6.284   6.973  16.816
13215W        W13696   4.262   6.702  16.686
13216W        W13697   5.734   6.920  15.407
13217W        W13698   5.168   6.413  15.422
13218W        W13699   4.389   5.153  14.681
13219W        W13700   3.728  10.884   3.359
13220W        W13701   4.104   9.777   2.882
13221W        W13702   6.809   9.507   0.652
13222W        W13703   6.939  10.592   2.679
13223W        W13704   4.857  10.583   0.205
13224W        W13705   4.940   8.735   1.188
13225W        W13706   4.455   8.583   1.352
13226W        W13707   5.446   9.398   0.786
13227W        W13708   5.121  10.490   3.141
13228W        W13709   3.770   8.051   3.104
13229W        W13710   4.532   7.331   2.906
13230W        W13711   6.226   7.719   1.793
13231W        W13712   5.875   8.590   0.363
13232W        W13713   6.445   8.024   3.454
13233W        W13714   3.811   7.816   2.579
13234W        W13715   3.910  10.435   3.600
13235W        W13716   5.432   9.825   0.332
13236W        W13717   3.864   8.608   2.025
13237W        W13718   4.757   8.499   3.262
13238W        W13719   7.216   8.358   1.761
13239W        W13720   6.980   9.401   2.620
13240W        W13721   5.288   8.734   1.647
13241W        W13722   5.834  10.073   2.016
13242W        W13723   4.334   9.507   2.248
13243W        W13724   3.693   9.035   1.819
13244W        W13725   4.729   9.007   3.011
13245W        W13726   7.000   8.790   3.265
13246W        W13727   4.616  10.234   1.710
13247W        W13728   5.737   9.923   2.844
13248W        W13729   4.957   8.563   2.069
13249W        W13730   5.249   9.347   1.712
13250W        W13731   6.246  10.120   3.560
13251W        W13732   5.325   9.440   3.570
13252W        W13733   5.306   9.156   3.048
13253W        W13734   3.715   8.547   3.570
13254W        W13735   6.547  10.082   3.169
13255W        W13736   4.128   7.664   1.167
13256W        W13737   4.655   9.922   2.166
13257W        W13738   7.118   9.705   1.456
13258W        W13739   6.531   8.105   2.023
13259W        W13740   6.816   8.058   0.118
13260W        W13741   7.281   8.859   2.424
13261W        W13742   5.248  10.566   2.177
13262W        W13743   4.151  10.818   0.369
13263W        W13744   4.544  10.864   1.045
13264W        W13745   6.964   8.636   2.746
13265W        W13746   6.369   9.058   1.205
13266W        W13747   6.335   8.746   0.232
13267W        W13748   5.543   9.890   2.372
13268W        W13749   5.349   8.220   1.571
13269W        W13750   5.949  10.307   2.565
13270W        W13751   6.820   9.098   0.987
13271W        W13752   5.722   7.756   1.003
13272W        W13753   4.379  10.450   0.686
13273W        W13754   3.750   7.949   1.285
13274W        W13755   6.536   8.556   1.759
13275W        W13756   3.994  10.173   1.674
13276W        W13757   5.335  10.523   0.544
13277W        W13758   6.727   8.549   0.008
13278W        W13759   3.750  10.307   2.172
13279W        W13760   4.541   9.879   2.652
13280W        W13761   4.914   9.239   1.271
13281W        W13762   7.165   7.406   1.661
13282W        W13763   4.384   9.278   0.129
13283W        W13764   4.039   8.311   0.308
13284W        W13765   4.101  10.267   1.102
13285W        W13766   5.232   9.750   1.350
13286W        W13767   6.564  10.609   3.064
13287W        W13768   5.490   8.251   0.748
13288W        W13769   6.873  10.649   1.520
13289W        W13770   6.550   8.502   3.118
13290W        W13771   7.263  10.158   1.252
13291W        W13772   5.890   9.450   2.736
13292W        W13773   3.656   9.001   0.942
13293W        W13774   4.767   9.416   2.515
13294W        W13775   5.971   8.680   0.893
13295W        W13776   5.848   9.170   0.997
13296W        W13777   4.191   8.590   2.471
13297W        W13778   4.176   8.466   3.393
13298W        W13779   4.066   7.383   1.552
13299W        W13780   5.834   7.730   2.113
13300W        W13781   5.837   8.064   0.454
13301W        W13782   5.987   7.538   3.247
13302W        W13783   7.006   9.839   3.369
13303W        W13784   6.436   8.006   2.965
13304W        W13785   6.236   7.944   1.235
13305W        W13786   6.629   9.078   3.639
13306W        W13787   4.369  10.654   1.625
13307W        W13788   5.027   8.371   0.611
13308W        W13789   4.596   7.655   3.275
13309W        W13790   6.648   8.139   0.956
13310W        W13791   7.015   8.621   0.901
13311W        W13792   4.758  10.838   3.372
13312W        W13793   4.684   7.374   0.607
13313W        W13794   7.005   7.908   1.642
13314W        W13795   7.155  10.157   0.087
13315W        W13796   4.062   9.360   1.789
13316W        W13797   5.979   7.947   0.019
13317W        W13798   7.113  10.279   1.739
13318W        W13799   7.152   7.473   2.489
13319W        W13800   5.597   8.685   3.043
13320W        W13801   5.690  10.024   0.746
13321W        W13802   6.090   9.318   3.486
13322W        W13803   5.764   7.295   1.795
13323W        W13804   4.376   8.198   1.858
13324W        W13805   3.930   9.398   2.632
13325W        W13806   5.789  10.591   1.338
13326W        W13807   5.620  10.535   2.977
13327W        W13808   6.963   9.594   0.182
13328W        W13809   5.398   9.077   1.243
13329W        W13810   7.250   7.588   2.984
13330W        W13811   5.399   9.423   2.578
13331W        W13812   5.616   8.309   2.023
13332W        W13813   6.468   8.607   0.861
13333W        W13814   6.755   8.340   0.503
13334W        W13815   6.564  10.380   0.892
13335W        W13816   6.398   9.983   1.688
13336W        W13817   6.294   9.062   0.666
13337W        W13818   5.727   9.272   1.652
13338W        W13819   6.608   9.060   1.719
13339W        W13820   3.983   8.075   2.143
13340W        W13821   6.761   9.127   2.970
13341W        W13822   7.112  10.745   2.116
13342W        W13823   5.042  10.189   1.518
13343W        W13824   6.049  10.722   2.842
13344W        W13825   5.250  10.760   2.667
13345W        W13826   6.947   7.714   1.133
13346W        W13827   6.738   9.033   2.434
13347W        W13828   3.721   8.354   2.472
13348W        W13829   6.581   8.149   1.490
13349W        W13830   6.992   8.300   3.267
13350W        W13831   5.877   9.999   1.485
13351W        W13832   5.133  10.590   1.098
13352W        W13833   5.352   7.424   2.166
13353W        W13834   4.380  10.544   0.014
13354W        W13835   4.754   9.010   0.765
13355W        W13836   5.408   9.639   3.078
13356W        W13837   5.238   7.997   1.068
13357W        W13838   6.594   7.594   1.496
13358W        W13839   6.314  10.876   1.824
13359W        W13840   5.726  10.524   2.164
13360W        W13841   5.122   9.561   2.125
13361W        W13842   6.892  10.284   2.251
13362W        W13843   4.586   7.787   1.020
13363W        W13844   5.108  10.084   1.980
13364W        W13845   4.591   8.015   0.045
13365W        W13846   5.392   8.624   2.439
13366W        W13847   6.240   7.490   2.309
13367W        W13848   3.660   9.333   2.194
13368W        W13849   5.364   9.151   0.352
13369W        W13850   4.632   7.466   0.122
13370W        W13851   5.370   8.547   1.173
13371W        W13852   6.340   7.523   2.872
13372W        W13853   4.928   9.535   2.981
13373W        W13854   5.732   9.317   3.198
13374W        W13855   6.349   9.347   3.091
13375W        W13856   5.633   7.487   3.596
13376W        W13857   4.855   8.103   1.989
13377W        W13858   4.281   8.059   1.387
13378W        W13859   4.067  10.771   1.063
13379W        W13860   5.399  10.101   3.188
13380W        W13861   4.434   9.586   0.547
13381W        W13862   6.114   8.971   1.768
13382W        W13863   6.394   8.770   2.167
13383W        W13864   5.599   9.444   2.101
13384W        W13865   6.069   9.818   0.233
13385W        W13866   5.741   7.839   1.561
13386W        W13867   7.220   8.117   0.829
13387W        W13868   3.714  10.706   2.860
13388W        W13869   4.131   9.932   2.392
13389W        W13870   3.698  10.778   0.624
13390W        W13871   5.597   8.048   2.430
13391W        W13872   4.960  10.071   0.279
13392W        W13873   6.865  10.453   0.465
13393W        W13874   5.840   9.106   0.479
13394W        W13875   4.683   8.297   0.996
13395W        W13876   5.515   8.207   0.048
13396W        W13877   6.099   9.772   3.226
13397W        W13878   6.452   7.678   0.843
13398W        W13879   3.782   7.526   0.291
13399W        W13880   5.068   9.845   2.581
13400W        W13881   4.867   9.761   1.673
13401W        W13882   4.609   9.713   0.071
13402W        W13883   3.850   9.954   0.839
13403W        W13884   4.354   9.024   3.281
13404W        W13885   5.058   7.584   3.467
13405W        W13886   5.767   7.726   2.823
13406W        W13887   4.962   7.494   1.104
13407W        W13888   6.021   7.571   0.609
13408W        W13889   3.966   7.503   2.186
13409W        W13890   4.014   8.466   1.556
13410W        W13891   6.703   7.574   1.962
13411W        W13892   4.125   8.072   0.776
13412W        W13893   6.696   7.760   2.392
13413W        W13894   7.092   8.963   0.077
13414W        W13895   4.384   7.721   1.896
13415W        W13896   5.498   8.293   2.836
13416W        W13897   3.646   7.983   0.314
13417W        W13898   4.432   9.372   2.875
13418W        W13899   5.790   8.770   2.054
13419W        W13900   5.657  10.849   0.350
13420W        W13901   3.803   9.356   0.047
13421W        W13902   4.538   9.767   3.173
13422W        W13903   4.059   8.934   2.804
13423W        W13904   5.050   9.039   2.598
13424W        W13905   6.818   7.398   2.860
13425W        W13906   7.216   9.008   2.851
13426W        W13907   7.204   9.208   0.537
13427W        W13908   6.067   9.540   0.636
13428W        W13909   6.541  10.840   0.331
13429W        W13910   5.718   8.830   3.473
13430W        W13911   7.254   7.719   3.465
13431W        W13912   6.972   8.647   2.086
13432W        W13913   5.280  10.777   3.563
13433W        W13914   5.135   7.406   0.290
13434W        W13915   6.674  10.005   0.233
13435W        W13916   4.443   8.098   3.119
13436W        W13917   4.877  10.092   2.981
13437W        W13918   7.003   8.083   2.779
13438W        W13919   6.214  10.742   0.747
13439W        W13920   6.453   9.361   2.114
13440W        W13921   4.703   7.777   2.781
13441W        W13922   5.172   8.846   3.538
13442W        W13923   4.675  10.025   0.732
13443W        W13924   6.430   9.523   0.996
13444W        W13925   4.198   8.149   2.720
13445W        W13926   5.527  10.211   1.184
13446W        W13927   7.277   8.771   1.365
13447W        W13928   5.499   7.404   3.084
13448W        W13929   6.279  10.109   2.163
13449W        W13930   6.582  10.453   1.871
13450W        W13931   3.811  10.147   3.141
13451W        W13932   4.524   7.487   1.489
13452W        W13933   6.145   8.329   2.181
13453W        W13934   4.943   9.500   0.381
13454W        W13935   6.941   9.442   1.880
13455W        W13936   4.268  10.200   3.303
13456W        W13937   6.655  10.882   1.100
13457W        W13938   4.754   7.902   1.545
13458W        W13939   4.523   9.395   1.635
13459W        W13940   4.836  10.806   2.385
13460W        W13941   6.903  10.902   3.417
13461W        W13942   6.062   9.090   2.350
13462W        W13943   3.911   8.888   0.265
13463W        W13944   7.045  10.546   0.962
13464W        W13945   6.882   7.870   0.581
13465W        W13946   5.021   7.389   2.984
13466W        W13947   6.727  10.191   1.442
13467W        W13948   6.756   8.747   1.347
13468W        W13949   4.873   8.420   1.563
13469W        W13950   5.118   8.682   2.887
13470W        W13951   6.229   9.835   2.750
13471W        W13952   4.879   8.289   2.862
13472W        W13953   4.858  10.755   1.478
13473W        W13954   4.175  10.714   3.112
13474W        W13955   4.287  10.075   0.242
13475W        W13956   6.804   9.833   1.052
13476W        W13957   4.408   8.625   2.938
13477W        W13958   7.181   8.555   0.419
13478W        W13959   4.926   9.612   0.890
13479W        W13960   6.025   8.994   2.971
13480W        W13961   5.916   8.622   2.515
13481W        W13962   4.476   8.994   2.544
13482W        W13963   6.686  10.882   2.373
13483W        W13964   6.477   7.516   3.367
13484W        W13965   4.141   7.666   2.954
13485W        W13966   4.480   8.689   2.007
13486W        W13967   4.849   8.503   0.129
13487W        W13968   3.652  10.262   2.674
13488W        W13969   5.237   8.971   2.117
13489W        W13970   5.060   7.996   0.222
13490W        W13971   4.195   8.812   1.003
13491W        W13972   3.966  10.664   2.440
13492W        W13973   6.761   8.890   0.548
13493W        W13974   6.856   7.806   3.234
13494W        W13975   6.292  10.015   1.197
13495W        W13976   3.890   8.939   3.374
13496W        W13977   6.856   7.403   0.670
13497W        W13978   6.376   9.878   0.681
13498W        W13979   5.278   8.936   0.766
13499W        W13980   6.465   7.740   0.289
13500W        W13981   6.530   8.347   2.475
13501W        W13982   4.239   8.940   1.682
13502W        W13983   4.533   9.879   1.331
13503W        W13984   6.296   8.499   1.296
13504W        W13985   5.319   7.878   1.992
13505W        W13986   7.281   9.789   2.503
13506W        W13987   7.199   7.776   2.064
13507W        W13988   3.738  10.606   1.440
13508W        W13989   4.247   9.793   0.976
13509W        W13990   4.162   7.410   3.529
13510W        W13991   5.281  10.263   3.631
13511W        W13992   7.036   9.231   1.421
13512W        W13993   6.390   9.408   0.301
13513W        W13994   5.685  10.929   2.513
13514W        W13995   6.542   9.651   3.550
13515W        W13996   5.357   7.361   0.830
13516W        W13997   6.070   8.230   1.689
13517W        W13998   3.756   9.817   2.021
13518W        W13999   5.009   7.779   0.662
13519W        W14000   4.813   9.263   3.511
13520W        W14001   5.807   8.244   1.225
13521W        W14002   6.012   9.654   2.347
13522W        W14003   4.166  10.259   2.782
13523W        W14004   4.757  10.242   3.505
13524W        W14005   4.608   8.039   0.519
13525W        W14006   6.125   8.181   0.844
13526W        W14007   6.083  10.289   3.081
13527W        W14008   4.768   8.881   1.680
13528W        W14009   4.423  10.579   2.545
13529W        W14010   7.168  10.696   0.146
13530W        W14011   4.031   9.368   3.142
13531W        W14012   6.026   9.630   1.830
13532W        W14013   4.462   9.279   1.072
13533W        W14014   4.833  10.286   2.467
13534W        W14015   5.211   7.705   1.508
13535W        W14016   3.822   9.689   0.438
13536W        W14017   5.341   8.640   0.308
13537W        W14018   3.987   9.189   1.327
13538W        W14019   5.277   7.831   2.791
13539W        W14020   6.949   7.540   0.218
13540W        W14021   7.042   9.286   3.317
13541W        W14022   5.696  10.543   3.469
13542W        W14023   7.254   9.637   2.991
13543W        W14024   6.662  10.435   3.602
13544W        W14025   4.401  10.891   2.080
13545W        W14026   7.260   9.513   0.954
13546W        W14027   5.790   8.780   1.467
13547W        W14028   5.557   7.392   1.357
13548W        W14029   4.616  10.376   1.194
13549W        W14030   5.115   8.117   2.419
13550W        W14031   4.815   7.486   1.888
13551W        W14032   3.878  10.308   0.436
13552W        W14033   5.694   9.672   1.154
13553W        W14034   4.569  10.467   3.033
13554W        W14035   4.046   9.290   0.729
13555W        W14036   3.931   7.833   1.728
13556W        W14037   5.479   9.798   1.785
13557W        W14038   3.731   7.652   0.805
13558W        W14039   6.395   8.858   2.732
13559W        W14040   6.272   8.244   0.304
13560W        W14041   6.789   9.916   1.952
13561W        W14042   5.450  10.400   1.783
13562W        W14043   4.862  10.504   0.694
13563W        W14044   3.944  10.667   1.865
13564W        W14045   6.141   8.425   3.500
13565W        W14046   4.124   7.955   3.499
13566W        W14047   3.855   8.555   0.832
13567W        W14048   4.546   8.544   0.557
13568W        W14049   6.309   8.871   3.374
13569W        W14050   4.652   9.152   2.083
13570W        W14051   6.126   7.438   1.203
13571W        W14052   5.257  10.869   1.706
13572W        W14053   6.471  10.331   2.643
13573W        W14054   6.055  10.480   1.754
13574W        W14055   6.074   9.460   1.348
13575W        W14056   5.536   7.685   0.419
13576W        W14057   7.217   7.313   1.141
13577W        W14058   7.071   8.285   1.294
13578W        W14059   5.763   9.455   0.171
13579W        W14060   6.699   9.655   2.919
13580W        W14061   6.353  10.356   0.386
13581W        W14062   4.968   8.031   3.292
13582W        W14063   4.788   8.615   2.533
13583W        W14064   6.880  10.110   2.810
13584W        W14065   5.980   8.060   3.187
13585W        W14066   3.824   8.531   2.964
13586W        W14067   5.584   9.008   2.690
13587W        W14068   3.941   9.766   1.347
13588W        W14069   4.088   9.063   2.237
13589W        W14070   6.405   9.349   2.587
13590W        W14071   6.177  10.729   3.398
13591W        W14072   6.073   8.468   2.951
13592W        W14073   6.350  10.522   1.356
13593W        W14074   5.352  10.242   2.679
13594W        W14075   4.837  10.597   1.948
13595W        W14076   6.642   9.768   2.367
13596W        W14077   5.692   9.840   3.504
13597W        W14078   4.297   9.793   1.843
13598W        W14079   6.643   9.552   1.488
13599W        W14080   6.284  10.618   2.239
13600W        W14081   5.283   8.399   3.319
13601W        W14082   5.734  10.565   0.830
13602W        W14083   5.042   9.820   3.468
13603W        W14084   5.168  10.058   0.845
13604W        W14085   4.389   8.798   0.104
13605W        W14086   3.728  10.884   7.003
13606W        W14087   4.104   9.777   6.526
13607W        W14088   6.809   9.507   4.296
13608W        W14089   6.939  10.592   6.323
13609W        W14090   4.857  10.583   3.849
13610W        W14091   4.940   8.735   4.832
13611W        W14092   4.455   8.583   4.996
13612W        W14093   5.446   9.398   4.430
13613W        W14094   5.121  10.490   6.785
13614W        W14095   3.770   8.051   6.748
13615W        W14096   4.532   7.331   6.550
13616W        W14097   6.226   7.719   5.437
13617W        W14098   5.875   8.590   4.007
13618W        W14099   6.445   8.024   7.098
13619W        W14100   3.811   7.816   6.223
13620W        W14101   5.432   9.825   3.976
13621W        W14102   3.864   8.608   5.669
13622W        W14103   4.757   8.499   6.906
13623W        W14104   7.216   8.358   5.405
13624W        W14105   6.980   9.401   6.264
13625W        W14106   5.288   8.734   5.291
13626W        W14107   5.834  10.073   5.660
13627W        W14108   4.334   9.507   5.892
13628W        W14109   3.693   9.035   5.463
13629W        W14110   4.729   9.007   6.655
13630W        W14111   7.000   8.790   6.909
13631W        W14112   4.616  10.234   5.354
13632W        W14113   5.737   9.923   6.488
13633W        W14114   4.957   8.563   5.713
13634W        W14115   5.249   9.347   5.356
13635W        W14116   6.246  10.120   7.204
13636W        W14117   5.325   9.440   7.214
13637W        W14118   5.306   9.156   6.692
13638W        W14119   3.715   8.547   7.214
13639W        W14120   6.547  10.082   6.813
13640W        W14121   4.128   7.664   4.811
13641W        W14122   4.655   9.922   5.810
13642W        W14123   7.118   9.705   5.100
13643W        W14124   6.531   8.105   5.667
13644W        W14125   6.816   8.058   3.762
13645W        W14126   7.281   8.859   6.068
13646W        W14127   5.248  10.566   5.821
13647W        W14128   7.022  10.032   4.259
13648W        W14129   4.151  10.818   4.013
13649W        W14130   4.544  10.864   4.689
13650W        W14131   4.341   7.618   6.115
13651W        W14132   6.964   8.636   6.390
13652W        W14133   6.369   9.058   4.849
13653W        W14134   6.335   8.746   3.876
13654W        W14135   5.543   9.890   6.016
13655W        W14136   5.349   8.220   5.215
13656W        W14137   5.949  10.307   6.209
13657W        W14138   6.820   9.098   4.631
13658W        W14139   5.722   7.756   4.647
13659W        W14140   4.379  10.450   4.330
13660W        W14141   3.750   7.949   4.929
13661W        W14142   3.994  10.173   5.318
13662W        W14143   5.335  10.523   4.188
13663W        W14144   6.727   8.549   3.652
13664W        W14145   3.750  10.307   5.816
13665W        W14146   4.541   9.879   6.296
13666W        W14147   4.914   9.239   4.915
13667W        W14148   4.936   7.644   6.008
13668W        W14149   7.165   7.406   5.305
13669W        W14150   4.384   9.278   3.773
13670W        W14151   4.039   8.311   3.952
13671W        W14152   4.101  10.267   4.746
13672W        W14153   5.232   9.750   4.994
13673W        W14154   6.564  10.609   6.708
13674W        W14155   5.490   8.251   4.392
13675W        W14156   6.873  10.649   5.164
13676W        W14157   6.550   8.502   6.762
13677W        W14158   7.263  10.158   4.896
13678W        W14159   5.890   9.450   6.380
13679W        W14160   3.656   9.001   4.586
13680W        W14161   4.767   9.416   6.159
13681W        W14162   5.971   8.680   4.537
13682W        W14163   5.848   9.170   4.641
13683W        W14164   4.191   8.590   6.115
13684W        W14165   4.176   8.466   7.037
13685W        W14166   4.066   7.383   5.196
13686W        W14167   5.834   7.730   5.757
13687W        W14168   5.482   7.915   6.920
13688W        W14169   5.837   8.064   4.098
13689W        W14170   7.020  10.457   6.852
13690W        W14171   5.987   7.538   6.891
13691W        W14172   7.006   9.839   7.013
13692W        W14173   6.436   8.006   6.609
13693W        W14174   6.236   7.944   4.879
13694W        W14175   6.629   9.078   7.283
13695W        W14176   4.369  10.654   5.269
13696W        W14177   5.027   8.371   4.255
13697W        W14178   4.596   7.655   6.919
13698W        W14179   6.648   8.139   4.600
13699W        W14180   7.015   8.621   4.545
13700W        W14181   4.758  10.838   7.016
13701W        W14182   4.684   7.374   4.251
13702W        W14183   7.005   7.908   5.286
13703W        W14184   7.155  10.157   3.731
13704W        W14185   4.062   9.360   5.433
13705W        W14186   5.979   7.947   3.663
13706W        W14187   7.113  10.279   5.383
13707W        W14188   7.152   7.473   6.133
13708W        W14189   5.597   8.685   6.687
13709W        W14190   5.690  10.024   4.390
13710W        W14191   6.090   9.318   7.130
13711W        W14192   5.764   7.295   5.439
13712W        W14193   4.376   8.198   5.502
13713W        W14194   3.930   9.398   6.276
13714W        W14195   5.789  10.591   4.982
13715W        W14196   6.983   8.188   5.854
13716W        W14197   5.620  10.535   6.621
13717W        W14198   6.963   9.594   3.826
13718W        W14199   5.398   9.077   4.887
13719W        W14200   7.250   7.588   6.628
13720W        W14201   5.399   9.423   6.222
13721W        W14202   5.616   8.309   5.667
13722W        W14203   6.468   8.607   4.505
13723W        W14204   6.755   8.340   4.147
13724W        W14205   6.564  10.380   4.536
13725W        W14206   6.398   9.983   5.332
13726W        W14207   5.727   9.272   5.296
13727W        W14208   6.608   9.060   5.363
13728W        W14209   3.983   8.075   5.787
13729W        W14210   6.761   9.127   6.614
13730W        W14211   7.112  10.745   5.760
13731W        W14212   5.042  10.189   5.162
13732W        W14213   6.049  10.722   6.486
13733W        W14214   6.043   8.052   6.250
13734W        W14215   5.250  10.760   6.311
13735W        W14216   6.947   7.714   4.777
13736W        W14217   6.738   9.033   6.078
13737W        W14218   6.992   8.300   6.911
13738W        W14219   5.877   9.999   5.129
13739W        W14220   5.133  10.590   4.742
13740W        W14221   4.248   7.770   4.000
13741W        W14222   5.352   7.424   5.810
13742W        W14223   4.380  10.544   3.658
13743W        W14224   4.754   9.010   4.409
13744W        W14225   5.408   9.639   6.722
13745W        W14226   5.238   7.997   4.712
13746W        W14227   6.594   7.594   5.140
13747W        W14228   6.314  10.876   5.468
13748W        W14229   5.726  10.524   5.808
13749W        W14230   5.122   9.561   5.769
13750W        W14231   6.892  10.284   5.895
13751W        W14232   4.586   7.787   4.664
13752W        W14233   5.108  10.084   5.624
13753W        W14234   4.591   8.015   3.689
13754W        W14235   5.392   8.624   6.083
13755W        W14236   6.240   7.490   5.953
13756W        W14237   5.364   9.151   3.996
13757W        W14238   4.632   7.466   3.766
13758W        W14239   5.370   8.547   4.817
13759W        W14240   6.340   7.523   6.516
13760W        W14241   4.928   9.535   6.625
13761W        W14242   6.349   9.347   6.735
13762W        W14243   5.633   7.487   7.240
13763W        W14244   4.855   8.103   5.633
13764W        W14245   4.281   8.059   5.031
13765W        W14246   4.067  10.771   4.707
13766W        W14247   5.399  10.101   6.832
13767W        W14248   4.434   9.586   4.191
13768W        W14249   6.114   8.971   5.412
13769W        W14250   6.394   8.770   5.811
13770W        W14251   5.599   9.444   5.745
13771W        W14252   6.069   9.818   3.877
13772W        W14253   5.741   7.839   5.205
13773W        W14254   7.220   8.117   4.473
13774W        W14255   3.714  10.706   6.504
13775W        W14256   4.131   9.932   6.036
13776W        W14257   3.698  10.778   4.268
13777W        W14258   5.597   8.048   6.074
13778W        W14259   4.960  10.071   3.923
13779W        W14260   6.865  10.453   4.109
13780W        W14261   5.840   9.106   4.123
13781W        W14262   4.683   8.297   4.640
13782W        W14263   5.515   8.207   3.692
13783W        W14264   6.099   9.772   6.870
13784W        W14265   6.452   7.678   4.487
13785W        W14266   3.782   7.526   3.935
13786W        W14267   5.068   9.845   6.225
13787W        W14268   4.867   9.761   5.317
13788W        W14269   4.609   9.713   3.715
13789W        W14270   3.850   9.954   4.483
13790W        W14271   4.354   9.024   6.925
13791W        W14272   5.058   7.584   7.111
13792W        W14273   5.767   7.726   6.467
13793W        W14274   4.962   7.494   4.748
13794W        W14275   6.021   7.571   4.253
13795W        W14276   3.966   7.503   5.830
13796W        W14277   4.014   8.466   5.200
13797W        W14278   6.703   7.574   5.606
13798W        W14279   4.125   8.072   4.420
13799W        W14280   6.696   7.760   6.036
13800W        W14281   7.092   8.963   3.721
13801W        W14282   4.384   7.721   5.540
13802W        W14283   5.498   8.293   6.480
13803W        W14284   3.646   7.983   3.958
13804W        W14285   4.432   9.372   6.519
13805W        W14286   5.790   8.770   5.698
13806W        W14287   5.657  10.849   3.994
13807W        W14288   3.803   9.356   3.691
13808W        W14289   4.538   9.767   6.817
13809W        W14290   4.059   8.934   6.448
13810W        W14291   5.050   9.039   6.242
13811W        W14292   6.818   7.398   6.504
13812W        W14293   7.216   9.008   6.495
13813W        W14294   7.204   9.208   4.181
13814W        W14295   6.067   9.540   4.280
13815W        W14296   6.541  10.840   3.975
13816W        W14297   5.718   8.830   7.117
13817W        W14298   4.048   9.797   7.157
13818W        W14299   6.972   8.647   5.730
13819W        W14300   5.280  10.777   7.207
13820W        W14301   5.135   7.406   3.934
13821W        W14302   6.674  10.005   3.877
13822W        W14303   4.443   8.098   6.763
13823W        W14304   4.877  10.092   6.625
13824W        W14305   7.003   8.083   6.423
13825W        W14306   6.214  10.742   4.391
13826W        W14307   6.453   9.361   5.758
13827W        W14308   4.703   7.777   6.425
13828W        W14309   5.172   8.846   7.182
13829W        W14310   4.675  10.025   4.376
13830W        W14311   6.430   9.523   4.640
13831W        W14312   4.198   8.149   6.364
13832W        W14313   5.527  10.211   4.828
13833W        W14314   7.277   8.771   5.009
13834W        W14315   5.499   7.404   6.728
13835W        W14316   6.279  10.109   5.807
13836W        W14317   6.582  10.453   5.515
13837W        W14318   5.801  10.255   3.943
13838W        W14319   3.811  10.147   6.785
13839W        W14320   4.554   8.139   6.023
13840W        W14321   4.524   7.487   5.133
13841W        W14322   6.145   8.329   5.825
13842W        W14323   6.941   9.442   5.524
13843W        W14324   4.268  10.200   6.947
13844W        W14325   6.655  10.882   4.744
13845W        W14326   4.754   7.902   5.189
13846W        W14327   4.523   9.395   5.279
13847W        W14328   4.836  10.806   6.029
13848W        W14329   6.062   9.090   5.994
13849W        W14330   3.911   8.888   3.909
13850W        W14331   7.045  10.546   4.606
13851W        W14332   6.882   7.870   4.225
13852W        W14333   5.021   7.389   6.628
13853W        W14334   6.727  10.191   5.086
13854W        W14335   6.756   8.747   4.991
13855W        W14336   4.873   8.420   5.207
13856W        W14337   5.118   8.682   6.531
13857W        W14338   6.229   9.835   6.394
13858W        W14339   4.879   8.289   6.506
13859W        W14340   4.858  10.755   5.122
13860W        W14341   4.175  10.714   6.756
13861W        W14342   4.287  10.075   3.886
13862W        W14343   6.804   9.833   4.696
13863W        W14344   4.408   8.625   6.582
13864W        W14345   7.181   8.555   4.063
13865W        W14346   4.926   9.612   4.534
13866W        W14347   6.025   8.994   6.615
13867W        W14348   5.916   8.622   6.159
13868W        W14349   4.476   8.994   6.188
13869W        W14350   6.686  10.882   6.017
13870W        W14351   6.477   7.516   7.011
13871W        W14352   4.141   7.666   6.598
13872W        W14353   4.480   8.689   5.651
13873W        W14354   4.849   8.503   3.773
13874W        W14355   3.652  10.262   6.318
13875W        W14356   5.237   8.971   5.761
13876W        W14357   5.060   7.996   3.866
13877W        W14358   4.195   8.812   4.647
13878W        W14359   3.966  10.664   6.084
13879W        W14360   6.761   8.890   4.192
13880W        W14361   6.856   7.806   6.878
13881W        W14362   6.292  10.015   4.841
13882W        W14363   3.890   8.939   7.018
13883W        W14364   6.856   7.403   4.314
13884W        W14365   6.376   9.878   4.325
13885W        W14366   5.278   8.936   4.410
13886W        W14367   6.465   7.740   3.933
13887W        W14368   6.530   8.347   6.119
13888W        W14369   4.239   8.940   5.326
13889W        W14370   4.533   9.879   4.975
13890W        W14371   6.296   8.499   4.940
13891W        W14372   5.319   7.878   5.636
13892W        W14373   7.281   9.789   6.147
13893W        W14374   7.199   7.776   5.708
13894W        W14375   3.738  10.606   5.084
13895W        W14376   4.247   9.793   4.620
13896W        W14377   4.162   7.410   7.173
13897W        W14378   5.281  10.263   7.275
13898W        W14379   7.036   9.231   5.065
13899W        W14380   6.390   9.408   3.945
13900W        W14381   5.685  10.929   6.157
13901W        W14382   6.542   9.651   7.194
13902W        W14383   5.357   7.361   4.474
13903W        W14384   6.070   8.230   5.333
13904W        W14385   3.756   9.817   5.665
13905W        W14386   5.009   7.779   4.306
13906W        W14387   4.813   9.263   7.155
13907W        W14388   5.807   8.244   4.869
13908W        W14389   6.012   9.654   5.991
13909W        W14390   4.166  10.259   6.426
13910W        W14391   4.757  10.242   7.149
13911W        W14392   4.608   8.039   4.163
13912W        W14393   6.125   8.181   4.488
13913W        W14394   6.083  10.289   6.725
13914W        W14395   4.768   8.881   5.324
13915W        W14396   4.423  10.579   6.189
13916W        W14397   7.168  10.696   3.790
13917W        W14398   4.031   9.368   6.786
13918W        W14399   6.026   9.630   5.474
13919W        W14400   4.462   9.279   4.716
13920W        W14401   4.833  10.286   6.111
13921W        W14402   5.211   7.705   5.152
13922W        W14403   3.822   9.689   4.082
13923W        W14404   5.341   8.640   3.952
13924W        W14405   3.987   9.189   4.971
13925W        W14406   5.277   7.831   6.435
13926W        W14407   6.949   7.540   3.862
13927W        W14408   7.042   9.286   6.961
13928W        W14409   5.696  10.543   7.113
13929W        W14410   7.254   9.637   6.635
13930W        W14411   6.662  10.435   7.246
13931W        W14412   4.401  10.891   5.724
13932W        W14413   7.260   9.513   4.598
13933W        W14414   5.790   8.780   5.111
13934W        W14415   5.557   7.392   5.001
13935W        W14416   4.616  10.376   4.838
13936W        W14417   5.115   8.117   6.063
13937W        W14418   4.815   7.486   5.532
13938W        W14419   3.878  10.308   4.080
13939W        W14420   5.694   9.672   4.798
13940W        W14421   4.569  10.467   6.677
13941W        W14422   4.046   9.290   4.373
13942W        W14423   3.931   7.833   5.372
13943W        W14424   5.479   9.798   5.429
13944W        W14425   6.395   8.858   6.376
13945W        W14426   6.272   8.244   3.948
13946W        W14427   6.789   9.916   5.596
13947W        W14428   5.450  10.400   5.427
13948W        W14429   4.862  10.504   4.338
13949W        W14430   6.144   7.407   3.768
13950W        W14431   3.944  10.667   5.509
13951W        W14432   6.141   8.425   7.144
13952W        W14433   4.124   7.955   7.143
13953W        W14434   3.855   8.555   4.476
13954W        W14435   4.546   8.544   4.201
13955W        W14436   6.309   8.871   7.018
13956W        W14437   4.652   9.152   5.727
13957W        W14438   6.126   7.438   4.847
13958W        W14439   5.257  10.869   5.350
13959W        W14440   6.471  10.331   6.287
13960W        W14441   6.055  10.480   5.398
13961W        W14442   6.074   9.460   4.992
13962W        W14443   5.536   7.685   4.063
13963W        W14444   7.217   7.313   4.785
13964W        W14445   4.905   8.948   3.948
13965W        W14446   7.071   8.285   4.938
13966W        W14447   5.763   9.455   3.815
13967W        W14448   6.699   9.655   6.563
13968W        W14449   6.353  10.356   4.030
13969W        W14450   4.968   8.031   6.936
13970W        W14451   4.788   8.615   6.177
13971W        W14452   6.880  10.110   6.454
13972W        W14453   5.980   8.060   6.831
13973W        W14454   3.824   8.531   6.608
13974W        W14455   5.584   9.008   6.334
13975W        W14456   3.941   9.766   4.991
13976W        W14457   4.088   9.063   5.881
13977W        W14458   6.405   9.349   6.231
13978W        W14459   6.177  10.729   7.042
13979W        W14460   6.073   8.468   6.595
13980W        W14461   6.350  10.522   5.000
13981W        W14462   5.352  10.242   6.323
13982W        W14463   4.837  10.597   5.592
13983W        W14464   6.642   9.768   6.011
13984W        W14465   5.692   9.840   7.148
13985W        W14466   4.297   9.793   5.487
13986W        W14467   6.643   9.552   5.132
13987W        W14468   6.284  10.618   5.883
13988W        W14469   4.262  10.347   5.753
13989W        W14470   5.283   8.399   6.963
13990W        W14471   5.734  10.565   4.474
13991W        W14472   5.042   9.820   7.112
13992W        W14473   5.168  10.058   4.489
13993W        W14474   4.389   8.798   3.748
13994W        W14475   3.728  10.884  10.648
13995W        W14476   4.104   9.777  10.171
13996W        W14477   6.809   9.507   7.941
13997W        W14478   6.939  10.592   9.968
13998W        W14479   4.857  10.583   7.494
13999W        W14480   4.940   8.735   8.477
14000W        W14481   4.455   8.583   8.641
14001W        W14482   5.446   9.398   8.075
14002W        W14483   5.121  10.490  10.430
14003W        W14484   3.770   8.051  10.393
14004W        W14485   4.532   7.331  10.195
14005W        W14486   6.226   7.719   9.082
14006W        W14487   5.875   8.590   7.652
14007W        W14488   6.445   8.024  10.743
14008W        W14489   3.811   7.816   9.868
14009W        W14490   3.910  10.435  10.889
14010W        W14491   5.432   9.825   7.621
14011W        W14492   3.864   8.608   9.314
14012W        W14493   4.757   8.499  10.551
14013W        W14494   7.216   8.358   9.050
14014W        W14495   5.288   8.734   8.936
14015W        W14496   5.834  10.073   9.305
14016W        W14497   4.334   9.507   9.537
14017W        W14498   3.693   9.035   9.108
14018W        W14499   4.729   9.007  10.300
14019W        W14500   4.616  10.234   8.999
14020W        W14501   5.737   9.923  10.133
14021W        W14502   4.957   8.563   9.358
14022W        W14503   5.249   9.347   9.001
14023W        W14504   6.246  10.120  10.849
14024W        W14505   5.325   9.440  10.859
14025W        W14506   5.306   9.156  10.337
14026W        W14507   3.715   8.547  10.859
14027W        W14508   6.547  10.082  10.458
14028W        W14509   4.128   7.664   8.456
14029W        W14510   4.655   9.922   9.455
14030W        W14511   7.118   9.705   8.745
14031W        W14512   6.531   8.105   9.312
14032W        W14513   6.816   8.058   7.407
14033W        W14514   5.248  10.566   9.466
14034W        W14515   7.022  10.032   7.904
14035W        W14516   4.151  10.818   7.658
14036W        W14517   4.544  10.864   8.334
14037W        W14518   4.341   7.618   9.760
14038W        W14519   6.369   9.058   8.494
14039W        W14520   6.335   8.746   7.521
14040W        W14521   5.543   9.890   9.661
14041W        W14522   5.349   8.220   8.860
14042W        W14523   5.949  10.307   9.854
14043W        W14524   6.820   9.098   8.276
14044W        W14525   5.722   7.756   8.292
14045W        W14526   4.379  10.450   7.975
14046W        W14527   3.750   7.949   8.574
14047W        W14528   6.536   8.556   9.048
14048W        W14529   3.994  10.173   8.963
14049W        W14530   5.335  10.523   7.833
14050W        W14531   6.727   8.549   7.297
14051W        W14532   3.750  10.307   9.461
14052W        W14533   4.541   9.879   9.941
14053W        W14534   4.914   9.239   8.560
14054W        W14535   4.936   7.644   9.653
14055W        W14536   7.165   7.406   8.950
14056W        W14537   4.384   9.278   7.418
14057W        W14538   4.039   8.311   7.597
14058W        W14539   4.101  10.267   8.391
14059W        W14540   5.232   9.750   8.639
14060W        W14541   6.564  10.609  10.353
14061W        W14542   5.490   8.251   8.037
14062W        W14543   6.873  10.649   8.809
14063W        W14544   7.263  10.158   8.541
14064W        W14545   5.890   9.450  10.025
14065W        W14546   3.656   9.001   8.231
14066W        W14547   4.767   9.416   9.804
14067W        W14548   5.971   8.680   8.182
14068W        W14549   5.848   9.170   8.286
14069W        W14550   4.191   8.590   9.760
14070W        W14551   4.176   8.466  10.682
14071W        W14552   4.066   7.383   8.841
14072W        W14553   5.834   7.730   9.402
14073W        W14554   5.482   7.915  10.565
14074W        W14555   5.837   8.064   7.743
14075W        W14556   7.020  10.457  10.497
14076W        W14557   5.987   7.538  10.536
14077W        W14558   6.436   8.006  10.254
14078W        W14559   6.236   7.944   8.524
14079W        W14560   4.369  10.654   8.914
14080W        W14561   5.027   8.371   7.900
14081W        W14562   4.596   7.655  10.564
14082W        W14563   6.648   8.139   8.245
14083W        W14564   7.015   8.621   8.190
14084W        W14565   4.758  10.838  10.661
14085W        W14566   4.684   7.374   7.896
14086W        W14567   7.005   7.908   8.931
14087W        W14568   7.155  10.157   7.376
14088W        W14569   4.062   9.360   9.078
14089W        W14570   5.979   7.947   7.308
14090W        W14571   7.113  10.279   9.028
14091W        W14572   7.152   7.473   9.778
14092W        W14573   5.597   8.685  10.332
14093W        W14574   5.690  10.024   8.035
14094W        W14575   5.764   7.295   9.084
14095W        W14576   4.376   8.198   9.147
14096W        W14577   3.930   9.398   9.921
14097W        W14578   5.789  10.591   8.627
14098W        W14579   6.983   8.188   9.499
14099W        W14580   5.620  10.535  10.266
14100W        W14581   5.398   9.077   8.532
14101W        W14582   7.250   7.588  10.273
14102W        W14583   5.399   9.423   9.867
14103W        W14584   5.616   8.309   9.312
14104W        W14585   6.468   8.607   8.150
14105W        W14586   6.755   8.340   7.792
14106W        W14587   6.564  10.380   8.181
14107W        W14588   6.398   9.983   8.977
14108W        W14589   6.294   9.062   7.955
14109W        W14590   5.727   9.272   8.941
14110W        W14591   6.608   9.060   9.008
14111W        W14592   3.983   8.075   9.432
14112W        W14593   7.112  10.745   9.405
14113W        W14594   5.042  10.189   8.807
14114W        W14595   6.049  10.722  10.131
14115W        W14596   6.043   8.052   9.895
14116W        W14597   5.250  10.760   9.956
14117W        W14598   6.947   7.714   8.422
14118W        W14599   3.721   8.354   9.761
14119W        W14600   6.581   8.149   8.779
14120W        W14601   6.992   8.300  10.556
14121W        W14602   5.877   9.999   8.774
14122W        W14603   5.133  10.590   8.387
14123W        W14604   4.248   7.770   7.645
14124W        W14605   5.352   7.424   9.455
14125W        W14606   4.380  10.544   7.303
14126W        W14607   5.408   9.639  10.367
14127W        W14608   5.238   7.997   8.357
14128W        W14609   6.594   7.594   8.785
14129W        W14610   6.314  10.876   9.113
14130W        W14611   5.726  10.524   9.453
14131W        W14612   5.122   9.561   9.414
14132W        W14613   6.892  10.284   9.540
14133W        W14614   4.586   7.787   8.309
14134W        W14615   5.108  10.084   9.269
14135W        W14616   4.591   8.015   7.334
14136W        W14617   5.392   8.624   9.728
14137W        W14618   6.240   7.490   9.598
14138W        W14619   3.660   9.333   9.483
14139W        W14620   5.364   9.151   7.641
14140W        W14621   4.632   7.466   7.411
14141W        W14622   5.370   8.547   8.462
14142W        W14623   6.340   7.523  10.161
14143W        W14624   4.928   9.535  10.270
14144W        W14625   5.633   7.487  10.885
14145W        W14626   4.855   8.103   9.278
14146W        W14627   4.281   8.059   8.676
14147W        W14628   4.067  10.771   8.352
14148W        W14629   5.399  10.101  10.477
14149W        W14630   4.434   9.586   7.836
14150W        W14631   6.114   8.971   9.057
14151W        W14632   6.394   8.770   9.456
14152W        W14633   5.599   9.444   9.390
14153W        W14634   6.069   9.818   7.522
14154W        W14635   5.741   7.839   8.850
14155W        W14636   7.220   8.117   8.118
14156W        W14637   3.714  10.706  10.149
14157W        W14638   4.131   9.932   9.681
14158W        W14639   3.698  10.778   7.913
14159W        W14640   5.597   8.048   9.719
14160W        W14641   4.960  10.071   7.568
14161W        W14642   6.865  10.453   7.754
14162W        W14643   5.840   9.106   7.768
14163W        W14644   4.683   8.297   8.285
14164W        W14645   5.515   8.207   7.337
14165W        W14646   6.099   9.772  10.515
14166W        W14647   6.452   7.678   8.132
14167W        W14648   3.782   7.526   7.580
14168W        W14649   5.068   9.845   9.870
14169W        W14650   4.867   9.761   8.962
14170W        W14651   4.609   9.713   7.360
14171W        W14652   3.850   9.954   8.128
14172W        W14653   4.354   9.024  10.570
14173W        W14654   5.058   7.584  10.756
14174W        W14655   5.767   7.726  10.112
14175W        W14656   4.962   7.494   8.393
14176W        W14657   6.021   7.571   7.898
14177W        W14658   3.966   7.503   9.475
14178W        W14659   4.014   8.466   8.845
14179W        W14660   6.703   7.574   9.251
14180W        W14661   4.125   8.072   8.065
14181W        W14662   6.696   7.760   9.681
14182W        W14663   7.092   8.963   7.366
14183W        W14664   4.384   7.721   9.185
14184W        W14665   5.498   8.293  10.125
14185W        W14666   3.646   7.983   7.603
14186W        W14667   4.432   9.372  10.164
14187W        W14668   5.790   8.770   9.343
14188W        W14669   5.657  10.849   7.639
14189W        W14670   3.803   9.356   7.336
14190W        W14671   4.538   9.767  10.462
14191W        W14672   4.059   8.934  10.093
14192W        W14673   5.050   9.039   9.887
14193W        W14674   6.818   7.398  10.149
14194W        W14675   7.204   9.208   7.826
14195W        W14676   6.067   9.540   7.925
14196W        W14677   6.541  10.840   7.620
14197W        W14678   5.718   8.830  10.762
14198W        W14679   4.048   9.797  10.802
14199W        W14680   7.254   7.719  10.754
14200W        W14681   6.972   8.647   9.375
14201W        W14682   5.280  10.777  10.852
14202W        W14683   5.135   7.406   7.579
14203W        W14684   6.674  10.005   7.522
14204W        W14685   4.443   8.098  10.408
14205W        W14686   4.877  10.092  10.270
14206W        W14687   7.003   8.083  10.068
14207W        W14688   6.214  10.742   8.036
14208W        W14689   6.453   9.361   9.403
14209W        W14690   4.703   7.777  10.070
14210W        W14691   5.172   8.846  10.827
14211W        W14692   4.675  10.025   8.021
14212W        W14693   6.430   9.523   8.285
14213W        W14694   4.198   8.149  10.009
14214W        W14695   5.527  10.211   8.473
14215W        W14696   7.277   8.771   8.654
14216W        W14697   5.499   7.404  10.373
14217W        W14698   6.279  10.109   9.452
14218W        W14699   6.582  10.453   9.160
14219W        W14700   5.801  10.255   7.588
14220W        W14701   3.811  10.147  10.430
14221W        W14702   4.554   8.139   9.668
14222W        W14703   4.524   7.487   8.778
14223W        W14704   6.145   8.329   9.470
14224W        W14705   4.943   9.500   7.670
14225W        W14706   6.941   9.442   9.169
14226W        W14707   4.268  10.200  10.592
14227W        W14708   6.655  10.882   8.389
14228W        W14709   4.754   7.902   8.834
14229W        W14710   4.523   9.395   8.924
14230W        W14711   4.836  10.806   9.674
14231W        W14712   6.903  10.902  10.706
14232W        W14713   3.911   8.888   7.554
14233W        W14714   7.045  10.546   8.251
14234W        W14715   6.882   7.870   7.870
14235W        W14716   5.021   7.389  10.273
14236W        W14717   6.727  10.191   8.731
14237W        W14718   6.756   8.747   8.636
14238W        W14719   4.873   8.420   8.852
14239W        W14720   5.118   8.682  10.176
14240W        W14721   6.229   9.835  10.039
14241W        W14722   4.879   8.289  10.151
14242W        W14723   4.858  10.755   8.767
14243W        W14724   4.175  10.714  10.401
14244W        W14725   4.287  10.075   7.531
14245W        W14726   6.804   9.833   8.341
14246W        W14727   4.408   8.625  10.227
14247W        W14728   7.181   8.555   7.708
14248W        W14729   4.926   9.612   8.179
14249W        W14730   5.916   8.622   9.804
14250W        W14731   4.476   8.994   9.833
14251W        W14732   6.686  10.882   9.662
14252W        W14733   6.477   7.516  10.656
14253W        W14734   4.141   7.666  10.243
14254W        W14735   4.480   8.689   9.296
14255W        W14736   4.849   8.503   7.418
14256W        W14737   3.652  10.262   9.963
14257W        W14738   5.237   8.971   9.406
14258W        W14739   5.060   7.996   7.511
14259W        W14740   4.195   8.812   8.292
14260W        W14741   3.966  10.664   9.729
14261W        W14742   6.761   8.890   7.837
14262W        W14743   6.856   7.806  10.523
14263W        W14744   6.292  10.015   8.486
14264W        W14745   3.890   8.939  10.663
14265W        W14746   6.856   7.403   7.959
14266W        W14747   6.376   9.878   7.970
14267W        W14748   5.278   8.936   8.055
14268W        W14749   6.465   7.740   7.578
14269W        W14750   6.530   8.347   9.764
14270W        W14751   4.239   8.940   8.971
14271W        W14752   4.533   9.879   8.620
14272W        W14753   6.296   8.499   8.585
14273W        W14754   5.319   7.878   9.281
14274W        W14755   7.281   9.789   9.792
14275W        W14756   7.199   7.776   9.353
14276W        W14757   3.738  10.606   8.729
14277W        W14758   4.247   9.793   8.265
14278W        W14759   4.162   7.410  10.818
14279W        W14760   5.281  10.263  10.920
14280W        W14761   7.036   9.231   8.710
14281W        W14762   6.390   9.408   7.590
14282W        W14763   5.685  10.929   9.802
14283W        W14764   5.357   7.361   8.119
14284W        W14765   6.070   8.230   8.978
14285W        W14766   3.756   9.817   9.310
14286W        W14767   5.009   7.779   7.951
14287W        W14768   4.813   9.263  10.800
14288W        W14769   5.807   8.244   8.514
14289W        W14770   6.012   9.654   9.636
14290W        W14771   4.166  10.259  10.071
14291W        W14772   4.757  10.242  10.794
14292W        W14773   4.608   8.039   7.808
14293W        W14774   6.125   8.181   8.133
14294W        W14775   6.083  10.289  10.370
14295W        W14776   4.768   8.881   8.969
14296W        W14777   4.423  10.579   9.834
14297W        W14778   7.168  10.696   7.435
14298W        W14779   4.031   9.368  10.431
14299W        W14780   6.026   9.630   9.119
14300W        W14781   4.462   9.279   8.361
14301W        W14782   4.833  10.286   9.756
14302W        W14783   5.211   7.705   8.797
14303W        W14784   3.822   9.689   7.727
14304W        W14785   5.341   8.640   7.597
14305W        W14786   3.987   9.189   8.616
14306W        W14787   5.277   7.831  10.080
14307W        W14788   6.949   7.540   7.507
14308W        W14789   5.696  10.543  10.758
14309W        W14790   4.401  10.891   9.369
14310W        W14791   7.260   9.513   8.243
14311W        W14792   5.790   8.780   8.756
14312W        W14793   5.557   7.392   8.646
14313W        W14794   4.616  10.376   8.483
14314W        W14795   4.815   7.486   9.177
14315W        W14796   3.878  10.308   7.725
14316W        W14797   5.694   9.672   8.443
14317W        W14798   4.569  10.467  10.322
14318W        W14799   4.046   9.290   8.018
14319W        W14800   3.931   7.833   9.017
14320W        W14801   5.479   9.798   9.074
14321W        W14802   3.731   7.652   8.094
14322W        W14803   6.272   8.244   7.593
14323W        W14804   6.789   9.916   9.241
14324W        W14805   5.450  10.400   9.072
14325W        W14806   4.862  10.504   7.983
14326W        W14807   6.144   7.407   7.413
14327W        W14808   3.944  10.667   9.154
14328W        W14809   6.141   8.425  10.789
14329W        W14810   4.124   7.955  10.788
14330W        W14811   3.855   8.555   8.121
14331W        W14812   4.546   8.544   7.846
14332W        W14813   4.652   9.152   9.372
14333W        W14814   6.126   7.438   8.492
14334W        W14815   5.257  10.869   8.995
14335W        W14816   6.055  10.480   9.043
14336W        W14817   5.536   7.685   7.708
14337W        W14818   7.217   7.313   8.430
14338W        W14819   4.905   8.948   7.593
14339W        W14820   7.071   8.285   8.583
14340W        W14821   5.763   9.455   7.460
14341W        W14822   6.353  10.356   7.675
14342W        W14823   4.968   8.031  10.581
14343W        W14824   4.788   8.615   9.822
14344W        W14825   6.880  10.110  10.099
14345W        W14826   5.980   8.060  10.476
14346W        W14827   3.824   8.531  10.253
14347W        W14828   5.584   9.008   9.979
14348W        W14829   3.941   9.766   8.636
14349W        W14830   4.088   9.063   9.526
14350W        W14831   6.177  10.729  10.687
14351W        W14832   6.073   8.468  10.240
14352W        W14833   6.350  10.522   8.645
14353W        W14834   5.352  10.242   9.968
14354W        W14835   4.837  10.597   9.237
14355W        W14836   4.297   9.793   9.132
14356W        W14837   6.643   9.552   8.777
14357W        W14838   6.284  10.618   9.528
14358W        W14839   4.262  10.347   9.398
14359W        W14840   5.283   8.399  10.608
14360W        W14841   5.734  10.565   8.119
14361W        W14842   5.042   9.820  10.757
14362W        W14843   5.168  10.058   8.134
14363W        W14844   4.389   8.798   7.393
14364W        W14845   3.728  10.884  14.292
14365W        W14846   4.104   9.777  13.815
14366W        W14847   6.809   9.507  11.585
14367W        W14848   6.939  10.592  13.612
14368W        W14849   4.857  10.583  11.138
14369W        W14850   4.940   8.735  12.121
14370W        W14851   4.455   8.583  12.285
14371W        W14852   5.446   9.398  11.719
14372W        W14853   5.121  10.490  14.074
14373W        W14854   3.770   8.051  14.037
14374W        W14855   4.532   7.331  13.839
14375W        W14856   6.226   7.719  12.726
14376W        W14857   5.875   8.590  11.296
14377W        W14858   6.445   8.024  14.387
14378W        W14859   3.811   7.816  13.512
14379W        W14860   3.910  10.435  14.533
14380W        W14861   5.432   9.825  11.265
14381W        W14862   3.864   8.608  12.958
14382W        W14863   4.757   8.499  14.195
14383W        W14864   7.216   8.358  12.694
14384W        W14865   6.980   9.401  13.553
14385W        W14866   5.288   8.734  12.580
14386W        W14867   5.834  10.073  12.949
14387W        W14868   4.334   9.507  13.181
14388W        W14869   3.693   9.035  12.752
14389W        W14870   4.729   9.007  13.944
14390W        W14871   7.000   8.790  14.198
14391W        W14872   4.616  10.234  12.643
14392W        W14873   5.737   9.923  13.777
14393W        W14874   4.957   8.563  13.002
14394W        W14875   5.249   9.347  12.645
14395W        W14876   6.246  10.120  14.493
14396W        W14877   5.325   9.440  14.503
14397W        W14878   5.306   9.156  13.981
14398W        W14879   3.715   8.547  14.503
14399W        W14880   4.128   7.664  12.100
14400W        W14881   4.655   9.922  13.099
14401W        W14882   7.118   9.705  12.389
14402W        W14883   6.531   8.105  12.956
14403W        W14884   6.816   8.058  11.051
14404W        W14885   7.281   8.859  13.357
14405W        W14886   5.248  10.566  13.110
14406W        W14887   7.022  10.032  11.548
14407W        W14888   4.151  10.818  11.302
14408W        W14889   4.544  10.864  11.978
14409W        W14890   4.341   7.618  13.404
14410W        W14891   6.964   8.636  13.679
14411W        W14892   6.369   9.058  12.138
14412W        W14893   6.335   8.746  11.165
14413W        W14894   5.543   9.890  13.305
14414W        W14895   5.349   8.220  12.504
14415W        W14896   5.949  10.307  13.498
14416W        W14897   6.820   9.098  11.920
14417W        W14898   5.722   7.756  11.936
14418W        W14899   4.379  10.450  11.619
14419W        W14900   3.750   7.949  12.218
14420W        W14901   6.536   8.556  12.692
14421W        W14902   3.994  10.173  12.607
14422W        W14903   5.335  10.523  11.477
14423W        W14904   6.727   8.549  10.941
14424W        W14905   3.750  10.307  13.105
14425W        W14906   4.541   9.879  13.585
14426W        W14907   4.914   9.239  12.204
14427W        W14908   4.936   7.644  13.297
14428W        W14909   7.165   7.406  12.594
14429W        W14910   4.384   9.278  11.062
14430W        W14911   4.039   8.311  11.241
14431W        W14912   4.101  10.267  12.035
14432W        W14913   5.232   9.750  12.283
14433W        W14914   6.564  10.609  13.997
14434W        W14915   5.490   8.251  11.681
14435W        W14916   6.873  10.649  12.453
14436W        W14917   6.550   8.502  14.051
14437W        W14918   7.263  10.158  12.185
14438W        W14919   5.890   9.450  13.669
14439W        W14920   3.656   9.001  11.875
14440W        W14921   4.767   9.416  13.448
14441W        W14922   5.971   8.680  11.826
14442W        W14923   5.848   9.170  11.930
14443W        W14924   4.191   8.590  13.404
14444W        W14925   4.176   8.466  14.326
14445W        W14926   4.066   7.383  12.485
14446W        W14927   5.834   7.730  13.046
14447W        W14928   5.482   7.915  14.209
14448W        W14929   5.837   8.064  11.387
14449W        W14930   7.020  10.457  14.141
14450W        W14931   5.987   7.538  14.180
14451W        W14932   7.006   9.839  14.302
14452W        W14933   6.436   8.006  13.898
14453W        W14934   6.236   7.944  12.168
14454W        W14935   6.629   9.078  14.572
14455W        W14936   4.369  10.654  12.558
14456W        W14937   5.027   8.371  11.544
14457W        W14938   4.596   7.655  14.208
14458W        W14939   6.648   8.139  11.889
14459W        W14940   7.015   8.621  11.834
14460W        W14941   4.758  10.838  14.305
14461W        W14942   4.684   7.374  11.540
14462W        W14943   7.005   7.908  12.575
14463W        W14944   4.062   9.360  12.722
14464W        W14945   5.979   7.947  10.952
14465W        W14946   7.113  10.279  12.672
14466W        W14947   7.152   7.473  13.422
14467W        W14948   5.597   8.685  13.976
14468W        W14949   5.690  10.024  11.679
14469W        W14950   6.090   9.318  14.419
14470W        W14951   5.764   7.295  12.728
14471W        W14952   4.376   8.198  12.791
14472W        W14953   3.930   9.398  13.565
14473W        W14954   5.789  10.591  12.271
14474W        W14955   6.983   8.188  13.143
14475W        W14956   5.620  10.535  13.910
14476W        W14957   5.398   9.077  12.176
14477W        W14958   7.250   7.588  13.917
14478W        W14959   5.399   9.423  13.511
14479W        W14960   5.616   8.309  12.956
14480W        W14961   6.468   8.607  11.794
14481W        W14962   6.755   8.340  11.436
14482W        W14963   6.564  10.380  11.825
14483W        W14964   6.398   9.983  12.621
14484W        W14965   6.294   9.062  11.599
14485W        W14966   5.727   9.272  12.585
14486W        W14967   6.608   9.060  12.652
14487W        W14968   3.983   8.075  13.076
14488W        W14969   6.761   9.127  13.903
14489W        W14970   7.112  10.745  13.049
14490W        W14971   5.042  10.189  12.451
14491W        W14972   6.049  10.722  13.775
14492W        W14973   6.043   8.052  13.539
14493W        W14974   5.250  10.760  13.600
14494W        W14975   6.947   7.714  12.066
14495W        W14976   6.738   9.033  13.367
14496W        W14977   3.721   8.354  13.405
14497W        W14978   6.581   8.149  12.423
14498W        W14979   6.992   8.300  14.200
14499W        W14980   5.877   9.999  12.418
14500W        W14981   5.133  10.590  12.031
14501W        W14982   4.248   7.770  11.289
14502W        W14983   5.352   7.424  13.099
14503W        W14984   4.380  10.544  10.947
14504W        W14985   4.754   9.010  11.698
14505W        W14986   5.408   9.639  14.011
14506W        W14987   5.238   7.997  12.001
14507W        W14988   6.594   7.594  12.429
14508W        W14989   6.314  10.876  12.757
14509W        W14990   5.726  10.524  13.097
14510W        W14991   5.122   9.561  13.058
14511W        W14992   6.892  10.284  13.184
14512W        W14993   4.586   7.787  11.953
14513W        W14994   5.108  10.084  12.913
14514W        W14995   4.591   8.015  10.978
14515W        W14996   5.392   8.624  13.372
14516W        W14997   6.240   7.490  13.242
14517W        W14998   3.660   9.333  13.127
14518W        W14999   5.364   9.151  11.285
14519W        W15000   4.632   7.466  11.055
14520W        W15001   5.370   8.547  12.106
14521W        W15002   6.340   7.523  13.805
14522W        W15003   4.928   9.535  13.914
14523W        W15004   5.732   9.317  14.131
14524W        W15005   6.349   9.347  14.024
14525W        W15006   5.633   7.487  14.529
14526W        W15007   4.855   8.103  12.922
14527W        W15008   4.281   8.059  12.320
14528W        W15009   4.067  10.771  11.996
14529W        W15010   5.399  10.101  14.121
14530W        W15011   4.434   9.586  11.480
14531W        W15012   6.114   8.971  12.701
14532W        W15013   6.394   8.770  13.100
14533W        W15014   5.599   9.444  13.034
14534W        W15015   6.069   9.818  11.166
14535W        W15016   5.741   7.839  12.494
14536W        W15017   7.220   8.117  11.762
14537W        W15018   3.714  10.706  13.793
14538W        W15019   4.131   9.932  13.325
14539W        W15020   3.698  10.778  11.557
14540W        W15021   5.597   8.048  13.363
14541W        W15022   4.960  10.071  11.212
14542W        W15023   5.840   9.106  11.412
14543W        W15024   4.683   8.297  11.929
14544W        W15025   5.515   8.207  10.981
14545W        W15026   6.099   9.772  14.159
14546W        W15027   6.452   7.678  11.776
14547W        W15028   3.782   7.526  11.224
14548W        W15029   5.068   9.845  13.514
14549W        W15030   4.867   9.761  12.606
14550W        W15031   4.609   9.713  11.004
14551W        W15032   3.850   9.954  11.772
14552W        W15033   4.354   9.024  14.214
14553W        W15034   5.058   7.584  14.400
14554W        W15035   5.767   7.726  13.756
14555W        W15036   4.962   7.494  12.037
14556W        W15037   6.021   7.571  11.542
14557W        W15038   3.966   7.503  13.119
14558W        W15039   4.014   8.466  12.489
14559W        W15040   6.703   7.574  12.895
14560W        W15041   4.125   8.072  11.709
14561W        W15042   6.696   7.760  13.325
14562W        W15043   4.384   7.721  12.829
14563W        W15044   5.498   8.293  13.769
14564W        W15045   3.646   7.983  11.247
14565W        W15046   4.432   9.372  13.808
14566W        W15047   5.790   8.770  12.987
14567W        W15048   5.657  10.849  11.283
14568W        W15049   3.803   9.356  10.980
14569W        W15050   4.538   9.767  14.106
14570W        W15051   5.050   9.039  13.531
14571W        W15052   6.818   7.398  13.793
14572W        W15053   7.216   9.008  13.784
14573W        W15054   7.204   9.208  11.470
14574W        W15055   6.067   9.540  11.569
14575W        W15056   6.541  10.840  11.264
14576W        W15057   5.718   8.830  14.406
14577W        W15058   4.048   9.797  14.446
14578W        W15059   7.254   7.719  14.398
14579W        W15060   6.972   8.647  13.019
14580W        W15061   5.280  10.777  14.496
14581W        W15062   5.135   7.406  11.223
14582W        W15063   4.443   8.098  14.052
14583W        W15064   4.877  10.092  13.914
14584W        W15065   7.003   8.083  13.712
14585W        W15066   6.453   9.361  13.047
14586W        W15067   4.703   7.777  13.714
14587W        W15068   5.172   8.846  14.471
14588W        W15069   4.675  10.025  11.665
14589W        W15070   6.430   9.523  11.929
14590W        W15071   4.198   8.149  13.653
14591W        W15072   5.527  10.211  12.117
14592W        W15073   7.277   8.771  12.298
14593W        W15074   5.499   7.404  14.017
14594W        W15075   6.279  10.109  13.096
14595W        W15076   6.582  10.453  12.804
14596W        W15077   5.801  10.255  11.232
14597W        W15078   3.811  10.147  14.074
14598W        W15079   4.554   8.139  13.312
14599W        W15080   4.524   7.487  12.422
14600W        W15081   6.145   8.329  13.114
14601W        W15082   4.943   9.500  11.314
14602W        W15083   6.941   9.442  12.813
14603W        W15084   4.268  10.200  14.236
14604W        W15085   6.655  10.882  12.033
14605W        W15086   4.754   7.902  12.478
14606W        W15087   4.523   9.395  12.568
14607W        W15088   4.836  10.806  13.318
14608W        W15089   6.903  10.902  14.350
14609W        W15090   6.062   9.090  13.283
14610W        W15091   3.911   8.888  11.198
14611W        W15092   7.045  10.546  11.895
14612W        W15093   6.882   7.870  11.514
14613W        W15094   5.021   7.389  13.917
14614W        W15095   6.727  10.191  12.375
14615W        W15096   6.756   8.747  12.280
14616W        W15097   4.873   8.420  12.496
14617W        W15098   5.118   8.682  13.820
14618W        W15099   6.229   9.835  13.683
14619W        W15100   4.879   8.289  13.795
14620W        W15101   4.858  10.755  12.411
14621W        W15102   4.175  10.714  14.045
14622W        W15103   4.287  10.075  11.175
14623W        W15104   6.804   9.833  11.985
14624W        W15105   4.408   8.625  13.871
14625W        W15106   7.181   8.555  11.352
14626W        W15107   4.926   9.612  11.823
14627W        W15108   6.025   8.994  13.904
14628W        W15109   5.916   8.622  13.448
14629W        W15110   4.476   8.994  13.477
14630W        W15111   6.686  10.882  13.306
14631W        W15112   6.477   7.516  14.300
14632W        W15113   4.141   7.666  13.887
14633W        W15114   4.480   8.689  12.940
14634W        W15115   4.849   8.503  11.062
14635W        W15116   3.652  10.262  13.607
14636W        W15117   5.237   8.971  13.050
14637W        W15118   5.060   7.996  11.155
14638W        W15119   4.195   8.812  11.936
14639W        W15120   3.966  10.664  13.373
14640W        W15121   6.761   8.890  11.481
14641W        W15122   6.856   7.806  14.167
14642W        W15123   6.292  10.015  12.130
14643W        W15124   3.890   8.939  14.307
14644W        W15125   6.856   7.403  11.603
14645W        W15126   6.376   9.878  11.614
14646W        W15127   5.278   8.936  11.699
14647W        W15128   6.465   7.740  11.222
14648W        W15129   6.530   8.347  13.408
14649W        W15130   4.239   8.940  12.615
14650W        W15131   4.533   9.879  12.264
14651W        W15132   6.296   8.499  12.229
14652W        W15133   5.319   7.878  12.925
14653W        W15134   7.281   9.789  13.436
14654W        W15135   7.199   7.776  12.997
14655W        W15136   3.738  10.606  12.373
14656W        W15137   4.247   9.793  11.909
14657W        W15138   4.162   7.410  14.462
14658W        W15139   5.281  10.263  14.564
14659W        W15140   7.036   9.231  12.354
14660W        W15141   6.390   9.408  11.234
14661W        W15142   5.685  10.929  13.446
14662W        W15143   6.542   9.651  14.483
14663W        W15144   5.357   7.361  11.763
14664W        W15145   6.070   8.230  12.622
14665W        W15146   3.756   9.817  12.954
14666W        W15147   5.009   7.779  11.595
14667W        W15148   4.813   9.263  14.444
14668W        W15149   5.807   8.244  12.158
14669W        W15150   6.012   9.654  13.280
14670W        W15151   4.166  10.259  13.715
14671W        W15152   4.757  10.242  14.438
14672W        W15153   4.608   8.039  11.452
14673W        W15154   6.125   8.181  11.777
14674W        W15155   6.083  10.289  14.014
14675W        W15156   4.768   8.881  12.613
14676W        W15157   4.423  10.579  13.478
14677W        W15158   7.168  10.696  11.079
14678W        W15159   4.031   9.368  14.075
14679W        W15160   6.026   9.630  12.763
14680W        W15161   4.462   9.279  12.005
14681W        W15162   4.833  10.286  13.400
14682W        W15163   5.211   7.705  12.441
14683W        W15164   3.822   9.689  11.371
14684W        W15165   5.341   8.640  11.241
14685W        W15166   3.987   9.189  12.260
14686W        W15167   5.277   7.831  13.724
14687W        W15168   6.949   7.540  11.151
14688W        W15169   5.696  10.543  14.402
14689W        W15170   7.254   9.637  13.924
14690W        W15171   6.662  10.435  14.535
14691W        W15172   4.401  10.891  13.013
14692W        W15173   7.260   9.513  11.887
14693W        W15174   5.790   8.780  12.400
14694W        W15175   5.557   7.392  12.290
14695W        W15176   4.616  10.376  12.127
14696W        W15177   5.115   8.117  13.352
14697W        W15178   4.815   7.486  12.821
14698W        W15179   3.878  10.308  11.369
14699W        W15180   5.694   9.672  12.087
14700W        W15181   4.569  10.467  13.966
14701W        W15182   4.046   9.290  11.662
14702W        W15183   3.931   7.833  12.661
14703W        W15184   5.479   9.798  12.718
14704W        W15185   3.731   7.652  11.738
14705W        W15186   6.395   8.858  13.665
14706W        W15187   6.272   8.244  11.237
14707W        W15188   6.789   9.916  12.885
14708W        W15189   5.450  10.400  12.716
14709W        W15190   4.862  10.504  11.627
14710W        W15191   6.144   7.407  11.057
14711W        W15192   3.944  10.667  12.798
14712W        W15193   6.141   8.425  14.433
14713W        W15194   4.124   7.955  14.432
14714W        W15195   3.855   8.555  11.765
14715W        W15196   4.546   8.544  11.490
14716W        W15197   6.309   8.871  14.307
14717W        W15198   4.652   9.152  13.016
14718W        W15199   6.126   7.438  12.136
14719W        W15200   5.257  10.869  12.639
14720W        W15201   6.471  10.331  13.576
14721W        W15202   6.055  10.480  12.687
14722W        W15203   6.074   9.460  12.281
14723W        W15204   5.536   7.685  11.352
14724W        W15205   7.217   7.313  12.074
14725W        W15206   4.905   8.948  11.237
14726W        W15207   7.071   8.285  12.227
14727W        W15208   5.763   9.455  11.104
14728W        W15209   6.699   9.655  13.852
14729W        W15210   6.353  10.356  11.319
14730W        W15211   4.968   8.031  14.225
14731W        W15212   4.788   8.615  13.466
14732W        W15213   6.880  10.110  13.743
14733W        W15214   5.980   8.060  14.120
14734W        W15215   3.824   8.531  13.897
14735W        W15216   5.584   9.008  13.623
14736W        W15217   3.941   9.766  12.280
14737W        W15218   4.088   9.063  13.170
14738W        W15219   6.405   9.349  13.520
14739W        W15220   6.177  10.729  14.331
14740W        W15221   6.073   8.468  13.884
14741W        W15222   6.350  10.522  12.289
14742W        W15223   5.352  10.242  13.612
14743W        W15224   4.837  10.597  12.881
14744W        W15225   6.642   9.768  13.300
14745W        W15226   5.692   9.840  14.437
14746W        W15227   4.297   9.793  12.776
14747W        W15228   6.643   9.552  12.421
14748W        W15229   6.284  10.618  13.172
14749W        W15230   4.262  10.347  13.042
14750W        W15231   5.283   8.399  14.252
14751W        W15232   5.734  10.565  11.763
14752W        W15233   5.042   9.820  14.401
14753W        W15234   5.168  10.058  11.778
14754W        W15235   4.389   8.798  11.037
14755W        W15236   4.104   9.777  17.459
14756W        W15237   6.809   9.507  15.229
14757W        W15238   6.939  10.592  17.256
14758W        W15239   4.857  10.583  14.782
14759W        W15240   4.940   8.735  15.765
14760W        W15241   4.455   8.583  15.929
14761W        W15242   5.446   9.398  15.363
14762W        W15243   5.121  10.490  17.718
14763W        W15244   3.770   8.051  17.681
14764W        W15245   4.532   7.331  17.483
14765W        W15246   6.226   7.719  16.370
14766W        W15247   5.875   8.590  14.940
14767W        W15248   3.811   7.816  17.156
14768W        W15249   5.432   9.825  14.909
14769W        W15250   3.864   8.608  16.602
14770W        W15251   7.216   8.358  16.338
14771W        W15252   6.980   9.401  17.197
14772W        W15253   5.288   8.734  16.224
14773W        W15254   5.834  10.073  16.593
14774W        W15255   4.334   9.507  16.825
14775W        W15256   3.693   9.035  16.396
14776W        W15257   4.729   9.007  17.588
14777W        W15258   4.616  10.234  16.287
14778W        W15259   5.737   9.923  17.421
14779W        W15260   4.957   8.563  16.646
14780W        W15261   5.306   9.156  17.625
14781W        W15262   6.547  10.082  17.746
14782W        W15263   4.128   7.664  15.744
14783W        W15264   4.655   9.922  16.743
14784W        W15265   7.118   9.705  16.033
14785W        W15266   6.531   8.105  16.600
14786W        W15267   6.816   8.058  14.695
14787W        W15268   7.281   8.859  17.001
14788W        W15269   5.248  10.566  16.754
14789W        W15270   7.022  10.032  15.192
14790W        W15271   4.151  10.818  14.946
14791W        W15272   4.544  10.864  15.622
14792W        W15273   4.341   7.618  17.048
14793W        W15274   6.964   8.636  17.323
14794W        W15275   6.369   9.058  15.782
14795W        W15276   6.335   8.746  14.809
14796W        W15277   5.543   9.890  16.949
14797W        W15278   5.349   8.220  16.148
14798W        W15279   5.949  10.307  17.142
14799W        W15280   6.820   9.098  15.564
14800W        W15281   5.722   7.756  15.580
14801W        W15282   4.379  10.450  15.263
14802W        W15283   3.750   7.949  15.862
14803W        W15284   6.536   8.556  16.336
14804W        W15285   3.994  10.173  16.251
14805W        W15286   5.335  10.523  15.121
14806W        W15287   6.727   8.549  14.585
14807W        W15288   3.750  10.307  16.749
14808W        W15289   4.541   9.879  17.229
14809W        W15290   4.936   7.644  16.941
14810W        W15291   7.165   7.406  16.238
14811W        W15292   4.384   9.278  14.706
14812W        W15293   4.039   8.311  14.885
14813W        W15294   4.101  10.267  15.679
14814W        W15295   5.232   9.750  15.927
14815W        W15296   6.564  10.609  17.641
14816W        W15297   5.490   8.251  15.325
14817W        W15298   6.873  10.649  16.097
14818W        W15299   7.263  10.158  15.829
14819W        W15300   5.890   9.450  17.313
14820W        W15301   3.656   9.001  15.519
14821W        W15302   4.767   9.416  17.092
14822W        W15303   5.971   8.680  15.470
14823W        W15304   5.848   9.170  15.574
14824W        W15305   4.191   8.590  17.048
14825W        W15306   4.066   7.383  16.129
14826W        W15307   5.834   7.730  16.690
14827W        W15308   5.837   8.064  15.031
14828W        W15309   7.020  10.457  17.785
14829W        W15310   5.987   7.538  17.824
14830W        W15311   6.436   8.006  17.542
14831W        W15312   6.236   7.944  15.812
14832W        W15313   4.369  10.654  16.202
14833W        W15314   5.027   8.371  15.188
14834W        W15315   6.648   8.139  15.533
14835W        W15316   7.015   8.621  15.478
14836W        W15317   4.684   7.374  15.184
14837W        W15318   7.005   7.908  16.219
14838W        W15319   7.155  10.157  14.664
14839W        W15320   4.062   9.360  16.366
14840W        W15321   5.979   7.947  14.596
14841W        W15322   7.113  10.279  16.316
14842W        W15323   7.152   7.473  17.066
14843W        W15324   5.597   8.685  17.620
14844W        W15325   5.690  10.024  15.323
14845W        W15326   5.764   7.295  16.372
14846W        W15327   4.376   8.198  16.435
14847W        W15328   3.930   9.398  17.209
14848W        W15329   5.789  10.591  15.915
14849W        W15330   6.983   8.188  16.787
14850W        W15331   5.620  10.535  17.554
14851W        W15332   6.963   9.594  14.759
14852W        W15333   5.398   9.077  15.820
14853W        W15334   7.250   7.588  17.561
14854W        W15335   5.399   9.423  17.155
14855W        W15336   5.616   8.309  16.600
14856W        W15337   6.468   8.607  15.438
14857W        W15338   6.755   8.340  15.080
14858W        W15339   6.564  10.380  15.469
14859W        W15340   6.398   9.983  16.265
14860W        W15341   6.294   9.062  15.243
14861W        W15342   5.727   9.272  16.229
14862W        W15343   6.608   9.060  16.296
14863W        W15344   3.983   8.075  16.720
14864W        W15345   6.761   9.127  17.547
14865W        W15346   7.112  10.745  16.693
14866W        W15347   5.042  10.189  16.095
14867W        W15348   6.049  10.722  17.419
14868W        W15349   6.043   8.052  17.183
14869W        W15350   5.250  10.760  17.244
14870W        W15351   6.947   7.714  15.710
14871W        W15352   6.738   9.033  17.011
14872W        W15353   3.721   8.354  17.049
14873W        W15354   6.581   8.149  16.067
14874W        W15355   5.877   9.999  16.062
14875W        W15356   5.133  10.590  15.675
14876W        W15357   4.248   7.770  14.933
14877W        W15358   5.352   7.424  16.743
14878W        W15359   4.380  10.544  14.591
14879W        W15360   4.754   9.010  15.342
14880W        W15361   5.408   9.639  17.655
14881W        W15362   5.238   7.997  15.645
14882W        W15363   6.594   7.594  16.073
14883W        W15364   6.314  10.876  16.401
14884W        W15365   5.726  10.524  16.741
14885W        W15366   5.122   9.561  16.702
14886W        W15367   6.892  10.284  16.828
14887W        W15368   4.586   7.787  15.597
14888W        W15369   5.108  10.084  16.557
14889W        W15370   4.591   8.015  14.622
14890W        W15371   5.392   8.624  17.016
14891W        W15372   6.240   7.490  16.886
14892W        W15373   3.660   9.333  16.771
14893W        W15374   5.364   9.151  14.929
14894W        W15375   4.632   7.466  14.699
14895W        W15376   5.370   8.547  15.750
14896W        W15377   6.340   7.523  17.449
14897W        W15378   4.928   9.535  17.558
14898W        W15379   6.349   9.347  17.668
14899W        W15380   4.855   8.103  16.566
14900W        W15381   4.281   8.059  15.964
14901W        W15382   4.067  10.771  15.640
14902W        W15383   5.399  10.101  17.765
14903W        W15384   4.434   9.586  15.124
14904W        W15385   6.114   8.971  16.345
14905W        W15386   6.394   8.770  16.744
14906W        W15387   6.069   9.818  14.810
14907W        W15388   5.741   7.839  16.138
14908W        W15389   7.220   8.117  15.406
14909W        W15390   3.714  10.706  17.437
14910W        W15391   4.131   9.932  16.969
14911W        W15392   3.698  10.778  15.201
14912W        W15393   5.597   8.048  17.007
14913W        W15394   4.960  10.071  14.856
14914W        W15395   6.865  10.453  15.042
14915W        W15396   5.840   9.106  15.056
14916W        W15397   5.515   8.207  14.625
14917W        W15398   6.452   7.678  15.420
14918W        W15399   3.782   7.526  14.868
14919W        W15400   5.068   9.845  17.158
14920W        W15401   4.867   9.761  16.250
14921W        W15402   4.609   9.713  14.648
14922W        W15403   3.850   9.954  15.416
14923W        W15404   5.767   7.726  17.400
14924W        W15405   4.962   7.494  15.681
14925W        W15406   6.021   7.571  15.186
14926W        W15407   3.966   7.503  16.763
14927W        W15408   4.014   8.466  16.133
14928W        W15409   6.703   7.574  16.539
14929W        W15410   4.125   8.072  15.353
14930W        W15411   6.696   7.760  16.969
14931W        W15412   7.092   8.963  14.654
14932W        W15413   4.384   7.721  16.473
14933W        W15414   5.498   8.293  17.413
14934W        W15415   3.646   7.983  14.891
14935W        W15416   4.432   9.372  17.452
14936W        W15417   5.790   8.770  16.631
14937W        W15418   5.657  10.849  14.927
14938W        W15419   3.803   9.356  14.624
14939W        W15420   4.059   8.934  17.381
14940W        W15421   5.050   9.039  17.175
14941W        W15422   6.818   7.398  17.437
14942W        W15423   7.216   9.008  17.428
14943W        W15424   7.204   9.208  15.114
14944W        W15425   6.067   9.540  15.213
14945W        W15426   6.541  10.840  14.908
14946W        W15427   6.972   8.647  16.663
14947W        W15428   5.135   7.406  14.867
14948W        W15429   6.674  10.005  14.810
14949W        W15430   4.877  10.092  17.558
14950W        W15431   7.003   8.083  17.356
14951W        W15432   6.214  10.742  15.324
14952W        W15433   6.453   9.361  16.691
14953W        W15434   4.703   7.777  17.358
14954W        W15435   4.675  10.025  15.309
14955W        W15436   6.430   9.523  15.573
14956W        W15437   4.198   8.149  17.297
14957W        W15438   5.527  10.211  15.761
14958W        W15439   7.277   8.771  15.942
14959W        W15440   5.499   7.404  17.661
14960W        W15441   6.279  10.109  16.740
14961W        W15442   6.582  10.453  16.448
14962W        W15443   5.801  10.255  14.876
14963W        W15444   3.811  10.147  17.718
14964W        W15445   4.554   8.139  16.956
14965W        W15446   4.524   7.487  16.066
14966W        W15447   6.145   8.329  16.758
14967W        W15448   4.943   9.500  14.958
14968W        W15449   6.941   9.442  16.457
14969W        W15450   6.655  10.882  15.677
14970W        W15451   4.754   7.902  16.122
14971W        W15452   4.523   9.395  16.212
14972W        W15453   4.836  10.806  16.962
14973W        W15454   6.062   9.090  16.927
14974W        W15455   3.911   8.888  14.842
14975W        W15456   7.045  10.546  15.539
14976W        W15457   6.882   7.870  15.158
14977W        W15458   5.021   7.389  17.561
14978W        W15459   6.727  10.191  16.019
14979W        W15460   6.756   8.747  15.924
14980W        W15461   4.873   8.420  16.140
14981W        W15462   5.118   8.682  17.464
14982W        W15463   6.229   9.835  17.327
14983W        W15464   4.879   8.289  17.439
14984W        W15465   4.858  10.755  16.055
14985W        W15466   4.287  10.075  14.819
14986W        W15467   6.804   9.833  15.629
14987W        W15468   4.408   8.625  17.515
14988W        W15469   7.181   8.555  14.996
14989W        W15470   4.926   9.612  15.467
14990W        W15471   6.025   8.994  17.548
14991W        W15472   5.916   8.622  17.092
14992W        W15473   4.476   8.994  17.121
14993W        W15474   4.141   7.666  17.531
14994W        W15475   4.480   8.689  16.584
14995W        W15476   4.849   8.503  14.706
14996W        W15477   3.652  10.262  17.251
14997W        W15478   5.237   8.971  16.694
14998W        W15479   5.060   7.996  14.799
14999W        W15480   4.195   8.812  15.580
15000W        W15481   3.966  10.664  17.017
15001W        W15482   6.761   8.890  15.125
15002W        W15483   6.292  10.015  15.774
15003W        W15484   6.856   7.403  15.247
15004W        W15485   6.376   9.878  15.258
15005W        W15486   5.278   8.936  15.343
15006W        W15487   6.465   7.740  14.866
15007W        W15488   6.530   8.347  17.052
15008W        W15489   4.239   8.940  16.259
15009W        W15490   4.533   9.879  15.908
15010W        W15491   6.296   8.499  15.873
15011W        W15492   5.319   7.878  16.569
15012W        W15493   7.281   9.789  17.080
15013W        W15494   7.199   7.776  16.641
15014W        W15495   3.738  10.606  16.017
15015W        W15496   4.247   9.793  15.553
15016W        W15497   7.036   9.231  15.998
15017W        W15498   6.390   9.408  14.878
15018W        W15499   5.685  10.929  17.090
15019W        W15500   5.357   7.361  15.407
15020W        W15501   6.070   8.230  16.266
15021W        W15502   3.756   9.817  16.598
15022W        W15503   5.009   7.779  15.239
15023W        W15504   5.807   8.244  15.802
15024W        W15505   6.012   9.654  16.924
15025W        W15506   4.166  10.259  17.359
15026W        W15507   4.608   8.039  15.096
15027W        W15508   6.125   8.181  15.421
15028W        W15509   6.083  10.289  17.658
15029W        W15510   4.423  10.579  17.122
15030W        W15511   7.168  10.696  14.723
15031W        W15512   6.026   9.630  16.407
15032W        W15513   4.462   9.279  15.649
15033W        W15514   4.833  10.286  17.044
15034W        W15515   5.211   7.705  16.085
15035W        W15516   3.822   9.689  15.015
15036W        W15517   5.341   8.640  14.885
15037W        W15518   3.987   9.189  15.904
15038W        W15519   5.277   7.831  17.368
15039W        W15520   6.949   7.540  14.795
15040W        W15521   7.254   9.637  17.568
15041W        W15522   4.401  10.891  16.657
15042W        W15523   7.260   9.513  15.531
15043W        W15524   5.790   8.780  16.044
15044W        W15525   5.557   7.392  15.934
15045W        W15526   4.616  10.376  15.771
15046W        W15527   5.115   8.117  16.996
15047W        W15528   4.815   7.486  16.465
15048W        W15529   3.878  10.308  15.013
15049W        W15530   5.694   9.672  15.731
15050W        W15531   4.046   9.290  15.306
15051W        W15532   3.931   7.833  16.305
15052W        W15533   5.479   9.798  16.362
15053W        W15534   3.731   7.652  15.382
15054W        W15535   6.395   8.858  17.309
15055W        W15536   6.272   8.244  14.881
15056W        W15537   6.789   9.916  16.529
15057W        W15538   5.450  10.400  16.360
15058W        W15539   4.862  10.504  15.271
15059W        W15540   6.144   7.407  14.701
15060W        W15541   3.944  10.667  16.442
15061W        W15542   3.855   8.555  15.409
15062W        W15543   4.546   8.544  15.134
15063W        W15544   4.652   9.152  16.660
15064W        W15545   6.126   7.438  15.780
15065W        W15546   5.257  10.869  16.283
15066W        W15547   6.471  10.331  17.220
15067W        W15548   6.055  10.480  16.331
15068W        W15549   6.074   9.460  15.925
15069W        W15550   5.536   7.685  14.996
15070W        W15551   7.217   7.313  15.718
15071W        W15552   4.905   8.948  14.881
15072W        W15553   7.071   8.285  15.871
15073W        W15554   5.763   9.455  14.748
15074W        W15555   6.699   9.655  17.496
15075W        W15556   6.353  10.356  14.963
15076W        W15557   4.788   8.615  17.110
15077W        W15558   6.880  10.110  17.387
15078W        W15559   3.824   8.531  17.541
15079W        W15560   5.584   9.008  17.267
15080W        W15561   3.941   9.766  15.924
15081W        W15562   4.088   9.063  16.814
15082W        W15563   6.405   9.349  17.164
15083W        W15564   6.177  10.729  17.975
15084W        W15565   6.073   8.468  17.528
15085W        W15566   6.350  10.522  15.933
15086W        W15567   5.352  10.242  17.256
15087W        W15568   4.837  10.597  16.525
15088W        W15569   6.642   9.768  16.944
15089W        W15570   4.297   9.793  16.420
15090W        W15571   6.643   9.552  16.065
15091W        W15572   6.284  10.618  16.816
15092W        W15573   4.262  10.347  16.686
15093W        W15574   5.734  10.565  15.407
15094W        W15575   5.168  10.058  15.422
15095W        W15576   4.389   8.798  14.681
15096W        W15577   3.728  14.528   3.359
15097W        W15578   4.104  13.421   2.882
15098W        W15579   6.809  13.151   0.652
15099W        W15580   6.939  14.236   2.679
15100W        W15581   4.857  14.227   0.205
15101W        W15582   4.940  12.379   1.188
15102W        W15583   4.455  12.227   1.352
15103W        W15584   5.446  13.042   0.786
15104W        W15585   5.121  14.134   3.141
15105W        W15586   3.770  11.695   3.104
15106W        W15587   4.532  10.975   2.906
15107W        W15588   6.226  11.363   1.793
15108W        W15589   5.875  12.234   0.363
15109W        W15590   6.445  11.668   3.454
15110W        W15591   3.811  11.460   2.579
15111W        W15592   3.910  14.079   3.600
15112W        W15593   5.432  13.469   0.332
15113W        W15594   3.864  12.252   2.025
15114W        W15595   4.757  12.143   3.262
15115W        W15596   7.216  12.002   1.761
15116W        W15597   6.980  13.045   2.620
15117W        W15598   5.288  12.378   1.647
15118W        W15599   5.834  13.717   2.016
15119W        W15600   4.334  13.151   2.248
15120W        W15601   3.693  12.679   1.819
15121W        W15602   4.729  12.651   3.011
15122W        W15603   7.000  12.434   3.265
15123W        W15604   4.616  13.878   1.710
15124W        W15605   5.737  13.567   2.844
15125W        W15606   4.957  12.207   2.069
15126W        W15607   5.249  12.991   1.712
15127W        W15608   6.246  13.764   3.560
15128W        W15609   5.325  13.084   3.570
15129W        W15610   5.306  12.800   3.048
15130W        W15611   3.715  12.191   3.570
15131W        W15612   6.547  13.726   3.169
15132W        W15613   4.128  11.308   1.167
15133W        W15614   4.655  13.566   2.166
15134W        W15615   7.118  13.349   1.456
15135W        W15616   6.531  11.749   2.023
15136W        W15617   6.816  11.702   0.118
15137W        W15618   7.281  12.503   2.424
15138W        W15619   5.248  14.210   2.177
15139W        W15620   7.022  13.676   0.615
15140W        W15621   4.151  14.462   0.369
15141W        W15622   4.544  14.508   1.045
15142W        W15623   4.341  11.262   2.471
15143W        W15624   6.964  12.280   2.746
15144W        W15625   6.369  12.702   1.205
15145W        W15626   6.335  12.390   0.232
15146W        W15627   5.543  13.534   2.372
15147W        W15628   5.349  11.864   1.571
15148W        W15629   5.949  13.951   2.565
15149W        W15630   6.820  12.742   0.987
15150W        W15631   5.722  11.400   1.003
15151W        W15632   4.379  14.094   0.686
15152W        W15633   3.750  11.593   1.285
15153W        W15634   6.536  12.200   1.759
15154W        W15635   3.994  13.817   1.674
15155W        W15636   5.335  14.167   0.544
15156W        W15637   6.727  12.193   0.008
15157W        W15638   3.750  13.951   2.172
15158W        W15639   4.541  13.523   2.652
15159W        W15640   4.914  12.883   1.271
15160W        W15641   4.936  11.288   2.364
15161W        W15642   7.165  11.050   1.661
15162W        W15643   4.384  12.922   0.129
15163W        W15644   4.039  11.955   0.308
15164W        W15645   4.101  13.911   1.102
15165W        W15646   5.232  13.394   1.350
15166W        W15647   6.564  14.253   3.064
15167W        W15648   5.490  11.895   0.748
15168W        W15649   6.873  14.293   1.520
15169W        W15650   6.550  12.146   3.118
15170W        W15651   7.263  13.802   1.252
15171W        W15652   5.890  13.094   2.736
15172W        W15653   3.656  12.645   0.942
15173W        W15654   4.767  13.060   2.515
15174W        W15655   5.971  12.324   0.893
15175W        W15656   5.848  12.814   0.997
15176W        W15657   4.191  12.234   2.471
15177W        W15658   4.176  12.110   3.393
15178W        W15659   4.066  11.027   1.552
15179W        W15660   5.834  11.374   2.113
15180W        W15661   5.482  11.559   3.276
15181W        W15662   5.837  11.708   0.454
15182W        W15663   7.020  14.101   3.208
15183W        W15664   5.987  11.182   3.247
15184W        W15665   7.006  13.483   3.369
15185W        W15666   6.436  11.650   2.965
15186W        W15667   6.236  11.588   1.235
15187W        W15668   6.629  12.722   3.639
15188W        W15669   4.369  14.298   1.625
15189W        W15670   5.027  12.015   0.611
15190W        W15671   4.596  11.299   3.275
15191W        W15672   6.648  11.783   0.956
15192W        W15673   7.015  12.265   0.901
15193W        W15674   4.758  14.482   3.372
15194W        W15675   4.684  11.018   0.607
15195W        W15676   7.005  11.552   1.642
15196W        W15677   7.155  13.801   0.087
15197W        W15678   4.062  13.004   1.789
15198W        W15679   5.979  11.591   0.019
15199W        W15680   7.113  13.923   1.739
15200W        W15681   7.152  11.117   2.489
15201W        W15682   5.597  12.329   3.043
15202W        W15683   5.690  13.668   0.746
15203W        W15684   6.090  12.962   3.486
15204W        W15685   5.764  10.939   1.795
15205W        W15686   4.376  11.842   1.858
15206W        W15687   3.930  13.042   2.632
15207W        W15688   5.789  14.235   1.338
15208W        W15689   5.620  14.179   2.977
15209W        W15690   6.963  13.238   0.182
15210W        W15691   5.398  12.721   1.243
15211W        W15692   7.250  11.232   2.984
15212W        W15693   5.399  13.067   2.578
15213W        W15694   5.616  11.953   2.023
15214W        W15695   6.468  12.251   0.861
15215W        W15696   6.755  11.984   0.503
15216W        W15697   6.564  14.024   0.892
15217W        W15698   6.398  13.627   1.688
15218W        W15699   6.294  12.706   0.666
15219W        W15700   5.727  12.916   1.652
15220W        W15701   6.608  12.704   1.719
15221W        W15702   3.983  11.719   2.143
15222W        W15703   6.761  12.771   2.970
15223W        W15704   7.112  14.389   2.116
15224W        W15705   5.042  13.833   1.518
15225W        W15706   6.049  14.366   2.842
15226W        W15707   6.043  11.696   2.606
15227W        W15708   5.250  14.404   2.667
15228W        W15709   6.947  11.358   1.133
15229W        W15710   6.738  12.677   2.434
15230W        W15711   3.721  11.998   2.472
15231W        W15712   6.581  11.793   1.490
15232W        W15713   6.992  11.944   3.267
15233W        W15714   5.877  13.643   1.485
15234W        W15715   5.133  14.234   1.098
15235W        W15716   4.248  11.414   0.356
15236W        W15717   5.352  11.068   2.166
15237W        W15718   4.380  14.188   0.014
15238W        W15719   4.754  12.654   0.765
15239W        W15720   5.408  13.283   3.078
15240W        W15721   5.238  11.641   1.068
15241W        W15722   6.594  11.238   1.496
15242W        W15723   6.314  14.520   1.824
15243W        W15724   5.726  14.168   2.164
15244W        W15725   5.122  13.205   2.125
15245W        W15726   6.892  13.928   2.251
15246W        W15727   4.586  11.431   1.020
15247W        W15728   5.108  13.728   1.980
15248W        W15729   4.591  11.659   0.045
15249W        W15730   5.392  12.268   2.439
15250W        W15731   6.240  11.134   2.309
15251W        W15732   3.660  12.977   2.194
15252W        W15733   5.364  12.795   0.352
15253W        W15734   4.632  11.110   0.122
15254W        W15735   5.370  12.191   1.173
15255W        W15736   6.340  11.167   2.872
15256W        W15737   4.928  13.179   2.981
15257W        W15738   5.732  12.961   3.198
15258W        W15739   6.349  12.991   3.091
15259W        W15740   5.633  11.131   3.596
15260W        W15741   4.855  11.747   1.989
15261W        W15742   4.281  11.703   1.387
15262W        W15743   4.067  14.415   1.063
15263W        W15744   5.399  13.745   3.188
15264W        W15745   4.434  13.230   0.547
15265W        W15746   6.114  12.615   1.768
15266W        W15747   6.394  12.414   2.167
15267W        W15748   5.599  13.088   2.101
15268W        W15749   5.741  11.483   1.561
15269W        W15750   7.220  11.761   0.829
15270W        W15751   3.714  14.350   2.860
15271W        W15752   4.131  13.576   2.392
15272W        W15753   3.698  14.422   0.624
15273W        W15754   5.597  11.692   2.430
15274W        W15755   4.960  13.715   0.279
15275W        W15756   6.865  14.097   0.465
15276W        W15757   5.840  12.750   0.479
15277W        W15758   4.683  11.941   0.996
15278W        W15759   5.515  11.851   0.048
15279W        W15760   6.099  13.416   3.226
15280W        W15761   6.452  11.322   0.843
15281W        W15762   3.782  11.170   0.291
15282W        W15763   5.068  13.489   2.581
15283W        W15764   4.867  13.405   1.673
15284W        W15765   4.609  13.357   0.071
15285W        W15766   3.850  13.598   0.839
15286W        W15767   4.354  12.668   3.281
15287W        W15768   5.058  11.228   3.467
15288W        W15769   5.767  11.370   2.823
15289W        W15770   4.962  11.138   1.104
15290W        W15771   6.021  11.215   0.609
15291W        W15772   3.966  11.147   2.186
15292W        W15773   4.014  12.110   1.556
15293W        W15774   6.703  11.218   1.962
15294W        W15775   4.125  11.716   0.776
15295W        W15776   6.696  11.404   2.392
15296W        W15777   7.092  12.607   0.077
15297W        W15778   4.384  11.365   1.896
15298W        W15779   5.498  11.937   2.836
15299W        W15780   3.646  11.627   0.314
15300W        W15781   4.432  13.016   2.875
15301W        W15782   5.790  12.414   2.054
15302W        W15783   5.657  14.493   0.350
15303W        W15784   3.803  13.000   0.047
15304W        W15785   4.538  13.411   3.173
15305W        W15786   4.059  12.578   2.804
15306W        W15787   5.050  12.683   2.598
15307W        W15788   6.818  11.042   2.860
15308W        W15789   7.216  12.652   2.851
15309W        W15790   7.204  12.852   0.537
15310W        W15791   6.541  14.484   0.331
15311W        W15792   5.718  12.474   3.473
15312W        W15793   4.048  13.441   3.513
15313W        W15794   7.254  11.363   3.465
15314W        W15795   6.972  12.291   2.086
15315W        W15796   5.280  14.421   3.563
15316W        W15797   5.135  11.050   0.290
15317W        W15798   6.674  13.649   0.233
15318W        W15799   4.443  11.742   3.119
15319W        W15800   4.877  13.736   2.981
15320W        W15801   7.003  11.727   2.779
15321W        W15802   6.214  14.386   0.747
15322W        W15803   4.703  11.421   2.781
15323W        W15804   5.172  12.490   3.538
15324W        W15805   4.675  13.669   0.732
15325W        W15806   4.198  11.793   2.720
15326W        W15807   5.527  13.855   1.184
15327W        W15808   7.277  12.415   1.365
15328W        W15809   5.499  11.048   3.084
15329W        W15810   6.279  13.753   2.163
15330W        W15811   6.582  14.097   1.871
15331W        W15812   5.801  13.899   0.299
15332W        W15813   3.811  13.791   3.141
15333W        W15814   4.554  11.783   2.379
15334W        W15815   4.524  11.131   1.489
15335W        W15816   6.145  11.973   2.181
15336W        W15817   4.943  13.144   0.381
15337W        W15818   6.941  13.086   1.880
15338W        W15819   4.268  13.844   3.303
15339W        W15820   6.655  14.526   1.100
15340W        W15821   4.754  11.546   1.545
15341W        W15822   4.523  13.039   1.635
15342W        W15823   4.836  14.450   2.385
15343W        W15824   6.903  14.546   3.417
15344W        W15825   6.062  12.734   2.350
15345W        W15826   3.911  12.532   0.265
15346W        W15827   7.045  14.190   0.962
15347W        W15828   5.021  11.033   2.984
15348W        W15829   6.727  13.835   1.442
15349W        W15830   6.756  12.391   1.347
15350W        W15831   4.873  12.064   1.563
15351W        W15832   5.118  12.326   2.887
15352W        W15833   6.229  13.479   2.750
15353W        W15834   4.879  11.933   2.862
15354W        W15835   4.858  14.399   1.478
15355W        W15836   4.175  14.358   3.112
15356W        W15837   4.287  13.719   0.242
15357W        W15838   6.804  13.477   1.052
15358W        W15839   4.408  12.269   2.938
15359W        W15840   7.181  12.199   0.419
15360W        W15841   4.926  13.256   0.890
15361W        W15842   6.025  12.638   2.971
15362W        W15843   5.916  12.266   2.515
15363W        W15844   4.476  12.638   2.544
15364W        W15845   6.686  14.526   2.373
15365W        W15846   6.477  11.160   3.367
15366W        W15847   4.141  11.310   2.954
15367W        W15848   4.480  12.333   2.007
15368W        W15849   4.849  12.147   0.129
15369W        W15850   3.652  13.906   2.674
15370W        W15851   5.237  12.615   2.117
15371W        W15852   5.060  11.640   0.222
15372W        W15853   4.195  12.456   1.003
15373W        W15854   3.966  14.308   2.440
15374W        W15855   6.761  12.534   0.548
15375W        W15856   6.856  11.450   3.234
15376W        W15857   6.292  13.659   1.197
15377W        W15858   3.890  12.583   3.374
15378W        W15859   6.856  11.047   0.670
15379W        W15860   6.376  13.522   0.681
15380W        W15861   5.278  12.580   0.766
15381W        W15862   6.465  11.384   0.289
15382W        W15863   6.530  11.991   2.475
15383W        W15864   4.239  12.584   1.682
15384W        W15865   4.533  13.523   1.331
15385W        W15866   6.296  12.143   1.296
15386W        W15867   5.319  11.522   1.992
15387W        W15868   7.281  13.433   2.503
15388W        W15869   7.199  11.420   2.064
15389W        W15870   3.738  14.250   1.440
15390W        W15871   4.247  13.437   0.976
15391W        W15872   4.162  11.054   3.529
15392W        W15873   5.281  13.907   3.631
15393W        W15874   7.036  12.875   1.421
15394W        W15875   5.685  14.573   2.513
15395W        W15876   6.542  13.295   3.550
15396W        W15877   5.357  11.005   0.830
15397W        W15878   6.070  11.874   1.689
15398W        W15879   3.756  13.461   2.021
15399W        W15880   5.009  11.423   0.662
15400W        W15881   4.813  12.907   3.511
15401W        W15882   5.807  11.888   1.225
15402W        W15883   6.012  13.298   2.347
15403W        W15884   4.166  13.903   2.782
15404W        W15885   4.757  13.886   3.505
15405W        W15886   4.608  11.683   0.519
15406W        W15887   6.125  11.825   0.844
15407W        W15888   6.083  13.933   3.081
15408W        W15889   4.768  12.525   1.680
15409W        W15890   4.423  14.223   2.545
15410W        W15891   7.168  14.340   0.146
15411W        W15892   4.031  13.012   3.142
15412W        W15893   6.026  13.274   1.830
15413W        W15894   4.462  12.923   1.072
15414W        W15895   4.833  13.930   2.467
15415W        W15896   5.211  11.349   1.508
15416W        W15897   3.822  13.333   0.438
15417W        W15898   5.341  12.284   0.308
15418W        W15899   3.987  12.833   1.327
15419W        W15900   5.277  11.475   2.791
15420W        W15901   6.949  11.184   0.218
15421W        W15902   7.042  12.930   3.317
15422W        W15903   5.696  14.187   3.469
15423W        W15904   7.254  13.281   2.991
15424W        W15905   6.662  14.079   3.602
15425W        W15906   4.401  14.535   2.080
15426W        W15907   7.260  13.157   0.954
15427W        W15908   5.790  12.424   1.467
15428W        W15909   5.557  11.036   1.357
15429W        W15910   4.616  14.020   1.194
15430W        W15911   5.115  11.761   2.419
15431W        W15912   4.815  11.130   1.888
15432W        W15913   3.878  13.952   0.436
15433W        W15914   5.694  13.316   1.154
15434W        W15915   4.569  14.111   3.033
15435W        W15916   4.046  12.934   0.729
15436W        W15917   3.931  11.477   1.728
15437W        W15918   5.479  13.442   1.785
15438W        W15919   3.731  11.296   0.805
15439W        W15920   6.395  12.502   2.732
15440W        W15921   6.272  11.888   0.304
15441W        W15922   6.789  13.560   1.952
15442W        W15923   5.450  14.044   1.783
15443W        W15924   4.862  14.148   0.694
15444W        W15925   3.944  14.311   1.865
15445W        W15926   6.141  12.069   3.500
15446W        W15927   4.124  11.599   3.499
15447W        W15928   3.855  12.199   0.832
15448W        W15929   4.546  12.188   0.557
15449W        W15930   6.309  12.515   3.374
15450W        W15931   4.652  12.796   2.083
15451W        W15932   6.126  11.082   1.203
15452W        W15933   5.257  14.513   1.706
15453W        W15934   6.471  13.975   2.643
15454W        W15935   6.055  14.124   1.754
15455W        W15936   6.074  13.104   1.348
15456W        W15937   5.536  11.329   0.419
15457W        W15938   7.217  10.957   1.141
15458W        W15939   4.905  12.592   0.304
15459W        W15940   7.071  11.929   1.294
15460W        W15941   5.763  13.099   0.171
15461W        W15942   6.699  13.299   2.919
15462W        W15943   6.353  14.000   0.386
15463W        W15944   4.968  11.675   3.292
15464W        W15945   4.788  12.259   2.533
15465W        W15946   6.880  13.754   2.810
15466W        W15947   5.980  11.704   3.187
15467W        W15948   3.824  12.175   2.964
15468W        W15949   5.584  12.652   2.690
15469W        W15950   3.941  13.410   1.347
15470W        W15951   4.088  12.707   2.237
15471W        W15952   6.405  12.993   2.587
15472W        W15953   6.177  14.373   3.398
15473W        W15954   6.073  12.112   2.951
15474W        W15955   6.350  14.166   1.356
15475W        W15956   5.352  13.886   2.679
15476W        W15957   4.837  14.241   1.948
15477W        W15958   6.642  13.412   2.367
15478W        W15959   5.692  13.484   3.504
15479W        W15960   4.297  13.437   1.843
15480W        W15961   6.643  13.196   1.488
15481W        W15962   6.284  14.262   2.239
15482W        W15963   4.262  13.991   2.109
15483W        W15964   5.283  12.043   3.319
15484W        W15965   5.734  14.209   0.830
15485W        W15966   5.042  13.464   3.468
15486W        W15967   5.168  13.702   0.845
15487W        W15968   4.389  12.442   0.104
15488W        W15969   3.728  14.528   7.003
15489W        W15970   4.104  13.421   6.526
15490W        W15971   6.809  13.151   4.296
15491W        W15972   6.939  14.236   6.323
15492W        W15973   4.857  14.227   3.849
15493W        W15974   4.940  12.379   4.832
15494W        W15975   4.455  12.227   4.996
15495W        W15976   5.446  13.042   4.430
15496W        W15977   5.121  14.134   6.785
15497W        W15978   3.770  11.695   6.748
15498W        W15979   4.532  10.975   6.550
15499W        W15980   6.226  11.363   5.437
15500W        W15981   5.875  12.234   4.007
15501W        W15982   6.445  11.668   7.098
15502W        W15983   3.811  11.460   6.223
15503W        W15984   3.910  14.079   7.244
15504W        W15985   5.432  13.469   3.976
15505W        W15986   3.864  12.252   5.669
15506W        W15987   4.757  12.143   6.906
15507W        W15988   7.216  12.002   5.405
15508W        W15989   6.980  13.045   6.264
15509W        W15990   5.288  12.378   5.291
15510W        W15991   5.834  13.717   5.660
15511W        W15992   4.334  13.151   5.892
15512W        W15993   3.693  12.679   5.463
15513W        W15994   4.729  12.651   6.655
15514W        W15995   7.000  12.434   6.909
15515W        W15996   4.616  13.878   5.354
15516W        W15997   5.737  13.567   6.488
15517W        W15998   4.957  12.207   5.713
15518W        W15999   5.249  12.991   5.356
15519W        W16000   6.246  13.764   7.204
15520W        W16001   5.325  13.084   7.214
15521W        W16002   5.306  12.800   6.692
15522W        W16003   3.715  12.191   7.214
15523W        W16004   6.547  13.726   6.813
15524W        W16005   4.128  11.308   4.811
15525W        W16006   4.655  13.566   5.810
15526W        W16007   7.118  13.349   5.100
15527W        W16008   6.531  11.749   5.667
15528W        W16009   6.816  11.702   3.762
15529W        W16010   7.281  12.503   6.068
15530W        W16011   5.248  14.210   5.821
15531W        W16012   7.022  13.676   4.259
15532W        W16013   4.151  14.462   4.013
15533W        W16014   4.544  14.508   4.689
15534W        W16015   4.341  11.262   6.115
15535W        W16016   6.964  12.280   6.390
15536W        W16017   6.369  12.702   4.849
15537W        W16018   6.335  12.390   3.876
15538W        W16019   5.543  13.534   6.016
15539W        W16020   5.949  13.951   6.209
15540W        W16021   6.820  12.742   4.631
15541W        W16022   5.722  11.400   4.647
15542W        W16023   4.379  14.094   4.330
15543W        W16024   3.750  11.593   4.929
15544W        W16025   6.536  12.200   5.403
15545W        W16026   3.994  13.817   5.318
15546W        W16027   5.335  14.167   4.188
15547W        W16028   6.727  12.193   3.652
15548W        W16029   3.750  13.951   5.816
15549W        W16030   4.541  13.523   6.296
15550W        W16031   4.914  12.883   4.915
15551W        W16032   4.936  11.288   6.008
15552W        W16033   7.165  11.050   5.305
15553W        W16034   4.384  12.922   3.773
15554W        W16035   4.039  11.955   3.952
15555W        W16036   4.101  13.911   4.746
15556W        W16037   5.232  13.394   4.994
15557W        W16038   6.564  14.253   6.708
15558W        W16039   5.490  11.895   4.392
15559W        W16040   6.873  14.293   5.164
15560W        W16041   6.550  12.146   6.762
15561W        W16042   7.263  13.802   4.896
15562W        W16043   5.890  13.094   6.380
15563W        W16044   3.656  12.645   4.586
15564W        W16045   4.767  13.060   6.159
15565W        W16046   5.971  12.324   4.537
15566W        W16047   5.848  12.814   4.641
15567W        W16048   4.191  12.234   6.115
15568W        W16049   4.176  12.110   7.037
15569W        W16050   4.066  11.027   5.196
15570W        W16051   5.834  11.374   5.757
15571W        W16052   5.482  11.559   6.920
15572W        W16053   5.837  11.708   4.098
15573W        W16054   7.020  14.101   6.852
15574W        W16055   5.987  11.182   6.891
15575W        W16056   7.006  13.483   7.013
15576W        W16057   6.436  11.650   6.609
15577W        W16058   6.236  11.588   4.879
15578W        W16059   6.629  12.722   7.283
15579W        W16060   4.369  14.298   5.269
15580W        W16061   5.027  12.015   4.255
15581W        W16062   4.596  11.299   6.919
15582W        W16063   6.648  11.783   4.600
15583W        W16064   7.015  12.265   4.545
15584W        W16065   4.758  14.482   7.016
15585W        W16066   4.684  11.018   4.251
15586W        W16067   7.155  13.801   3.731
15587W        W16068   4.062  13.004   5.433
15588W        W16069   5.979  11.591   3.663
15589W        W16070   7.113  13.923   5.383
15590W        W16071   7.152  11.117   6.133
15591W        W16072   5.597  12.329   6.687
15592W        W16073   5.690  13.668   4.390
15593W        W16074   6.090  12.962   7.130
15594W        W16075   5.764  10.939   5.439
15595W        W16076   4.376  11.842   5.502
15596W        W16077   3.930  13.042   6.276
15597W        W16078   5.789  14.235   4.982
15598W        W16079   6.983  11.832   5.854
15599W        W16080   5.620  14.179   6.621
15600W        W16081   6.963  13.238   3.826
15601W        W16082   5.398  12.721   4.887
15602W        W16083   7.250  11.232   6.628
15603W        W16084   5.399  13.067   6.222
15604W        W16085   5.616  11.953   5.667
15605W        W16086   6.468  12.251   4.505
15606W        W16087   6.755  11.984   4.147
15607W        W16088   6.564  14.024   4.536
15608W        W16089   6.398  13.627   5.332
15609W        W16090   6.294  12.706   4.310
15610W        W16091   5.727  12.916   5.296
15611W        W16092   6.608  12.704   5.363
15612W        W16093   3.983  11.719   5.787
15613W        W16094   6.761  12.771   6.614
15614W        W16095   7.112  14.389   5.760
15615W        W16096   5.042  13.833   5.162
15616W        W16097   6.049  14.366   6.486
15617W        W16098   6.043  11.696   6.250
15618W        W16099   5.250  14.404   6.311
15619W        W16100   6.947  11.358   4.777
15620W        W16101   6.738  12.677   6.078
15621W        W16102   3.721  11.998   6.116
15622W        W16103   6.581  11.793   5.134
15623W        W16104   6.992  11.944   6.911
15624W        W16105   5.877  13.643   5.129
15625W        W16106   5.133  14.234   4.742
15626W        W16107   4.248  11.414   4.000
15627W        W16108   5.352  11.068   5.810
15628W        W16109   4.380  14.188   3.658
15629W        W16110   4.754  12.654   4.409
15630W        W16111   5.408  13.283   6.722
15631W        W16112   5.238  11.641   4.712
15632W        W16113   6.594  11.238   5.140
15633W        W16114   6.314  14.520   5.468
15634W        W16115   5.726  14.168   5.808
15635W        W16116   5.122  13.205   5.769
15636W        W16117   6.892  13.928   5.895
15637W        W16118   4.586  11.431   4.664
15638W        W16119   5.108  13.728   5.624
15639W        W16120   4.591  11.659   3.689
15640W        W16121   5.392  12.268   6.083
15641W        W16122   6.240  11.134   5.953
15642W        W16123   3.660  12.977   5.838
15643W        W16124   5.364  12.795   3.996
15644W        W16125   4.632  11.110   3.766
15645W        W16126   5.370  12.191   4.817
15646W        W16127   6.340  11.167   6.516
15647W        W16128   4.928  13.179   6.625
15648W        W16129   5.732  12.961   6.842
15649W        W16130   6.349  12.991   6.735
15650W        W16131   5.633  11.131   7.240
15651W        W16132   4.855  11.747   5.633
15652W        W16133   4.281  11.703   5.031
15653W        W16134   4.067  14.415   4.707
15654W        W16135   5.399  13.745   6.832
15655W        W16136   4.434  13.230   4.191
15656W        W16137   6.114  12.615   5.412
15657W        W16138   6.394  12.414   5.811
15658W        W16139   5.599  13.088   5.745
15659W        W16140   6.069  13.462   3.877
15660W        W16141   5.741  11.483   5.205
15661W        W16142   7.220  11.761   4.473
15662W        W16143   3.714  14.350   6.504
15663W        W16144   4.131  13.576   6.036
15664W        W16145   3.698  14.422   4.268
15665W        W16146   5.597  11.692   6.074
15666W        W16147   4.960  13.715   3.923
15667W        W16148   6.865  14.097   4.109
15668W        W16149   5.840  12.750   4.123
15669W        W16150   4.683  11.941   4.640
15670W        W16151   5.515  11.851   3.692
15671W        W16152   6.099  13.416   6.870
15672W        W16153   6.452  11.322   4.487
15673W        W16154   3.782  11.170   3.935
15674W        W16155   5.068  13.489   6.225
15675W        W16156   4.867  13.405   5.317
15676W        W16157   4.609  13.357   3.715
15677W        W16158   3.850  13.598   4.483
15678W        W16159   4.354  12.668   6.925
15679W        W16160   5.058  11.228   7.111
15680W        W16161   5.767  11.370   6.467
15681W        W16162   4.962  11.138   4.748
15682W        W16163   3.966  11.147   5.830
15683W        W16164   4.014  12.110   5.200
15684W        W16165   6.703  11.218   5.606
15685W        W16166   4.125  11.716   4.420
15686W        W16167   6.696  11.404   6.036
15687W        W16168   7.092  12.607   3.721
15688W        W16169   4.384  11.365   5.540
15689W        W16170   5.498  11.937   6.480
15690W        W16171   3.646  11.627   3.958
15691W        W16172   4.432  13.016   6.519
15692W        W16173   5.790  12.414   5.698
15693W        W16174   5.657  14.493   3.994
15694W        W16175   3.803  13.000   3.691
15695W        W16176   4.538  13.411   6.817
15696W        W16177   4.059  12.578   6.448
15697W        W16178   5.050  12.683   6.242
15698W        W16179   6.818  11.042   6.504
15699W        W16180   7.216  12.652   6.495
15700W        W16181   7.204  12.852   4.181
15701W        W16182   6.067  13.184   4.280
15702W        W16183   6.541  14.484   3.975
15703W        W16184   5.718  12.474   7.117
15704W        W16185   4.048  13.441   7.157
15705W        W16186   7.254  11.363   7.109
15706W        W16187   6.972  12.291   5.730
15707W        W16188   5.280  14.421   7.207
15708W        W16189   5.135  11.050   3.934
15709W        W16190   6.674  13.649   3.877
15710W        W16191   4.443  11.742   6.763
15711W        W16192   4.877  13.736   6.625
15712W        W16193   7.003  11.727   6.423
15713W        W16194   6.214  14.386   4.391
15714W        W16195   6.453  13.005   5.758
15715W        W16196   4.703  11.421   6.425
15716W        W16197   5.172  12.490   7.182
15717W        W16198   4.675  13.669   4.376
15718W        W16199   6.430  13.167   4.640
15719W        W16200   4.198  11.793   6.364
15720W        W16201   5.527  13.855   4.828
15721W        W16202   5.499  11.048   6.728
15722W        W16203   6.279  13.753   5.807
15723W        W16204   6.582  14.097   5.515
15724W        W16205   5.801  13.899   3.943
15725W        W16206   3.811  13.791   6.785
15726W        W16207   4.554  11.783   6.023
15727W        W16208   4.524  11.131   5.133
15728W        W16209   6.145  11.973   5.825
15729W        W16210   4.943  13.144   4.025
15730W        W16211   6.941  13.086   5.524
15731W        W16212   4.268  13.844   6.947
15732W        W16213   6.655  14.526   4.744
15733W        W16214   4.754  11.546   5.189
15734W        W16215   4.523  13.039   5.279
15735W        W16216   4.836  14.450   6.029
15736W        W16217   6.903  14.546   7.061
15737W        W16218   6.062  12.734   5.994
15738W        W16219   3.911  12.532   3.909
15739W        W16220   7.045  14.190   4.606
15740W        W16221   6.882  11.514   4.225
15741W        W16222   5.021  11.033   6.628
15742W        W16223   6.727  13.835   5.086
15743W        W16224   6.756  12.391   4.991
15744W        W16225   4.873  12.064   5.207
15745W        W16226   5.118  12.326   6.531
15746W        W16227   6.229  13.479   6.394
15747W        W16228   4.879  11.933   6.506
15748W        W16229   4.858  14.399   5.122
15749W        W16230   4.175  14.358   6.756
15750W        W16231   4.287  13.719   3.886
15751W        W16232   6.804  13.477   4.696
15752W        W16233   4.408  12.269   6.582
15753W        W16234   7.181  12.199   4.063
15754W        W16235   4.926  13.256   4.534
15755W        W16236   6.025  12.638   6.615
15756W        W16237   5.916  12.266   6.159
15757W        W16238   4.476  12.638   6.188
15758W        W16239   6.686  14.526   6.017
15759W        W16240   6.477  11.160   7.011
15760W        W16241   4.141  11.310   6.598
15761W        W16242   4.480  12.333   5.651
15762W        W16243   4.849  12.147   3.773
15763W        W16244   3.652  13.906   6.318
15764W        W16245   5.237  12.615   5.761
15765W        W16246   5.060  11.640   3.866
15766W        W16247   4.195  12.456   4.647
15767W        W16248   3.966  14.308   6.084
15768W        W16249   6.761  12.534   4.192
15769W        W16250   6.856  11.450   6.878
15770W        W16251   6.292  13.659   4.841
15771W        W16252   3.890  12.583   7.018
15772W        W16253   6.856  11.047   4.314
15773W        W16254   6.376  13.522   4.325
15774W        W16255   5.278  12.580   4.410
15775W        W16256   6.465  11.384   3.933
15776W        W16257   6.530  11.991   6.119
15777W        W16258   4.239  12.584   5.326
15778W        W16259   4.533  13.523   4.975
15779W        W16260   6.296  12.143   4.940
15780W        W16261   5.319  11.522   5.636
15781W        W16262   7.281  13.433   6.147
15782W        W16263   7.199  11.420   5.708
15783W        W16264   3.738  14.250   5.084
15784W        W16265   4.247  13.437   4.620
15785W        W16266   4.162  11.054   7.173
15786W        W16267   5.281  13.907   7.275
15787W        W16268   7.036  12.875   5.065
15788W        W16269   6.390  13.052   3.945
15789W        W16270   5.685  14.573   6.157
15790W        W16271   6.542  13.295   7.194
15791W        W16272   5.357  11.005   4.474
15792W        W16273   6.070  11.874   5.333
15793W        W16274   3.756  13.461   5.665
15794W        W16275   4.813  12.907   7.155
15795W        W16276   5.807  11.888   4.869
15796W        W16277   6.012  13.298   5.991
15797W        W16278   4.166  13.903   6.426
15798W        W16279   4.757  13.886   7.149
15799W        W16280   4.608  11.683   4.163
15800W        W16281   6.125  11.825   4.488
15801W        W16282   6.083  13.933   6.725
15802W        W16283   4.768  12.525   5.324
15803W        W16284   4.423  14.223   6.189
15804W        W16285   4.031  13.012   6.786
15805W        W16286   6.026  13.274   5.474
15806W        W16287   4.462  12.923   4.716
15807W        W16288   4.833  13.930   6.111
15808W        W16289   5.211  11.349   5.152
15809W        W16290   3.822  13.333   4.082
15810W        W16291   5.341  12.284   3.952
15811W        W16292   3.987  12.833   4.971
15812W        W16293   5.277  11.475   6.435
15813W        W16294   6.949  11.184   3.862
15814W        W16295   7.042  12.930   6.961
15815W        W16296   7.254  13.281   6.635
15816W        W16297   6.662  14.079   7.246
15817W        W16298   4.401  14.535   5.724
15818W        W16299   7.260  13.157   4.598
15819W        W16300   5.790  12.424   5.111
15820W        W16301   5.557  11.036   5.001
15821W        W16302   4.616  14.020   4.838
15822W        W16303   5.115  11.761   6.063
15823W        W16304   4.815  11.130   5.532
15824W        W16305   3.878  13.952   4.080
15825W        W16306   5.694  13.316   4.798
15826W        W16307   4.569  14.111   6.677
15827W        W16308   4.046  12.934   4.373
15828W        W16309   3.931  11.477   5.372
15829W        W16310   5.479  13.442   5.429
15830W        W16311   3.731  11.296   4.449
15831W        W16312   6.395  12.502   6.376
15832W        W16313   6.272  11.888   3.948
15833W        W16314   6.789  13.560   5.596
15834W        W16315   5.450  14.044   5.427
15835W        W16316   4.862  14.148   4.338
15836W        W16317   6.144  11.051   3.768
15837W        W16318   3.944  14.311   5.509
15838W        W16319   6.141  12.069   7.144
15839W        W16320   4.124  11.599   7.143
15840W        W16321   3.855  12.199   4.476
15841W        W16322   4.546  12.188   4.201
15842W        W16323   6.309  12.515   7.018
15843W        W16324   4.652  12.796   5.727
15844W        W16325   6.126  11.082   4.847
15845W        W16326   5.257  14.513   5.350
15846W        W16327   6.471  13.975   6.287
15847W        W16328   6.055  14.124   5.398
15848W        W16329   6.074  13.104   4.992
15849W        W16330   5.536  11.329   4.063
15850W        W16331   7.217  10.957   4.785
15851W        W16332   4.905  12.592   3.948
15852W        W16333   7.071  11.929   4.938
15853W        W16334   5.763  13.099   3.815
15854W        W16335   6.699  13.299   6.563
15855W        W16336   6.353  14.000   4.030
15856W        W16337   4.968  11.675   6.936
15857W        W16338   4.788  12.259   6.177
15858W        W16339   6.880  13.754   6.454
15859W        W16340   3.824  12.175   6.608
15860W        W16341   5.584  12.652   6.334
15861W        W16342   3.941  13.410   4.991
15862W        W16343   4.088  12.707   5.881
15863W        W16344   6.405  12.993   6.231
15864W        W16345   6.177  14.373   7.042
15865W        W16346   6.073  12.112   6.595
15866W        W16347   6.350  14.166   5.000
15867W        W16348   5.352  13.886   6.323
15868W        W16349   4.837  14.241   5.592
15869W        W16350   6.642  13.412   6.011
15870W        W16351   5.692  13.484   7.148
15871W        W16352   4.297  13.437   5.487
15872W        W16353   6.643  13.196   5.132
15873W        W16354   6.284  14.262   5.883
15874W        W16355   4.262  13.991   5.753
15875W        W16356   5.283  12.043   6.963
15876W        W16357   5.734  14.209   4.474
15877W        W16358   5.042  13.464   7.112
15878W        W16359   5.168  13.702   4.489
15879W        W16360   3.728  14.528  10.648
15880W        W16361   4.104  13.421  10.171
15881W        W16362   6.809  13.151   7.941
15882W        W16363   4.857  14.227   7.494
15883W        W16364   4.940  12.379   8.477
15884W        W16365   4.455  12.227   8.641
15885W        W16366   5.446  13.042   8.075
15886W        W16367   5.121  14.134  10.430
15887W        W16368   3.770  11.695  10.393
15888W        W16369   4.532  10.975  10.195
15889W        W16370   6.226  11.363   9.082
15890W        W16371   5.875  12.234   7.652
15891W        W16372   6.445  11.668  10.743
15892W        W16373   3.811  11.460   9.868
15893W        W16374   3.910  14.079  10.889
15894W        W16375   5.432  13.469   7.621
15895W        W16376   3.864  12.252   9.314
15896W        W16377   4.757  12.143  10.551
15897W        W16378   7.216  12.002   9.050
15898W        W16379   6.980  13.045   9.909
15899W        W16380   5.288  12.378   8.936
15900W        W16381   5.834  13.717   9.305
15901W        W16382   4.334  13.151   9.537
15902W        W16383   3.693  12.679   9.108
15903W        W16384   4.729  12.651  10.300
15904W        W16385   7.000  12.434  10.554
15905W        W16386   4.616  13.878   8.999
15906W        W16387   5.737  13.567  10.133
15907W        W16388   4.957  12.207   9.358
15908W        W16389   5.249  12.991   9.001
15909W        W16390   6.246  13.764  10.849
15910W        W16391   5.325  13.084  10.859
15911W        W16392   5.306  12.800  10.337
15912W        W16393   3.715  12.191  10.859
15913W        W16394   6.547  13.726  10.458
15914W        W16395   4.128  11.308   8.456
15915W        W16396   4.655  13.566   9.455
15916W        W16397   7.118  13.349   8.745
15917W        W16398   6.531  11.749   9.312
15918W        W16399   6.816  11.702   7.407
15919W        W16400   5.248  14.210   9.466
15920W        W16401   7.022  13.676   7.904
15921W        W16402   4.151  14.462   7.658
15922W        W16403   4.544  14.508   8.334
15923W        W16404   4.341  11.262   9.760
15924W        W16405   6.964  12.280  10.035
15925W        W16406   6.369  12.702   8.494
15926W        W16407   6.335  12.390   7.521
15927W        W16408   5.543  13.534   9.661
15928W        W16409   5.349  11.864   8.860
15929W        W16410   5.949  13.951   9.854
15930W        W16411   6.820  12.742   8.276
15931W        W16412   5.722  11.400   8.292
15932W        W16413   4.379  14.094   7.975
15933W        W16414   3.750  11.593   8.574
15934W        W16415   6.536  12.200   9.048
15935W        W16416   3.994  13.817   8.963
15936W        W16417   5.335  14.167   7.833
15937W        W16418   6.727  12.193   7.297
15938W        W16419   3.750  13.951   9.461
15939W        W16420   4.541  13.523   9.941
15940W        W16421   4.914  12.883   8.560
15941W        W16422   4.936  11.288   9.653
15942W        W16423   7.165  11.050   8.950
15943W        W16424   4.384  12.922   7.418
15944W        W16425   4.039  11.955   7.597
15945W        W16426   4.101  13.911   8.391
15946W        W16427   5.232  13.394   8.639
15947W        W16428   6.564  14.253  10.353
15948W        W16429   5.490  11.895   8.037
15949W        W16430   6.550  12.146  10.407
15950W        W16431   7.263  13.802   8.541
15951W        W16432   5.890  13.094  10.025
15952W        W16433   3.656  12.645   8.231
15953W        W16434   4.767  13.060   9.804
15954W        W16435   5.971  12.324   8.182
15955W        W16436   5.848  12.814   8.286
15956W        W16437   4.191  12.234   9.760
15957W        W16438   4.176  12.110  10.682
15958W        W16439   4.066  11.027   8.841
15959W        W16440   5.834  11.374   9.402
15960W        W16441   5.482  11.559  10.565
15961W        W16442   5.837  11.708   7.743
15962W        W16443   7.020  14.101  10.497
15963W        W16444   5.987  11.182  10.536
15964W        W16445   7.006  13.483  10.658
15965W        W16446   6.436  11.650  10.254
15966W        W16447   6.236  11.588   8.524
15967W        W16448   6.629  12.722  10.928
15968W        W16449   5.027  12.015   7.900
15969W        W16450   4.596  11.299  10.564
15970W        W16451   6.648  11.783   8.245
15971W        W16452   7.015  12.265   8.190
15972W        W16453   4.758  14.482  10.661
15973W        W16454   4.684  11.018   7.896
15974W        W16455   7.005  11.552   8.931
15975W        W16456   7.155  13.801   7.376
15976W        W16457   4.062  13.004   9.078
15977W        W16458   7.113  13.923   9.028
15978W        W16459   7.152  11.117   9.778
15979W        W16460   5.597  12.329  10.332
15980W        W16461   5.690  13.668   8.035
15981W        W16462   6.090  12.962  10.775
15982W        W16463   5.764  10.939   9.084
15983W        W16464   4.376  11.842   9.147
15984W        W16465   3.930  13.042   9.921
15985W        W16466   5.789  14.235   8.627
15986W        W16467   6.983  11.832   9.499
15987W        W16468   5.620  14.179  10.266
15988W        W16469   6.963  13.238   7.471
15989W        W16470   5.398  12.721   8.532
15990W        W16471   7.250  11.232  10.273
15991W        W16472   5.399  13.067   9.867
15992W        W16473   5.616  11.953   9.312
15993W        W16474   6.468  12.251   8.150
15994W        W16475   6.755  11.984   7.792
15995W        W16476   6.564  14.024   8.181
15996W        W16477   6.398  13.627   8.977
15997W        W16478   6.294  12.706   7.955
15998W        W16479   5.727  12.916   8.941
15999W        W16480   6.608  12.704   9.008
16000W        W16481   3.983  11.719   9.432
16001W        W16482   6.761  12.771  10.259
16002W        W16483   7.112  14.389   9.405
16003W        W16484   5.042  13.833   8.807
16004W        W16485   6.049  14.366  10.131
16005W        W16486   6.043  11.696   9.895
16006W        W16487   5.250  14.404   9.956
16007W        W16488   6.947  11.358   8.422
16008W        W16489   6.738  12.677   9.723
16009W        W16490   3.721  11.998   9.761
16010W        W16491   6.581  11.793   8.779
16011W        W16492   6.992  11.944  10.556
16012W        W16493   5.877  13.643   8.774
16013W        W16494   5.133  14.234   8.387
16014W        W16495   4.248  11.414   7.645
16015W        W16496   5.352  11.068   9.455
16016W        W16497   4.380  14.188   7.303
16017W        W16498   4.754  12.654   8.054
16018W        W16499   5.408  13.283  10.367
16019W        W16500   5.238  11.641   8.357
16020W        W16501   6.594  11.238   8.785
16021W        W16502   6.314  14.520   9.113
16022W        W16503   5.726  14.168   9.453
16023W        W16504   5.122  13.205   9.414
16024W        W16505   6.892  13.928   9.540
16025W        W16506   4.586  11.431   8.309
16026W        W16507   4.591  11.659   7.334
16027W        W16508   5.392  12.268   9.728
16028W        W16509   6.240  11.134   9.598
16029W        W16510   3.660  12.977   9.483
16030W        W16511   5.364  12.795   7.641
16031W        W16512   4.632  11.110   7.411
16032W        W16513   5.370  12.191   8.462
16033W        W16514   6.340  11.167  10.161
16034W        W16515   4.928  13.179  10.270
16035W        W16516   5.732  12.961  10.487
16036W        W16517   6.349  12.991  10.380
16037W        W16518   5.633  11.131  10.885
16038W        W16519   4.855  11.747   9.278
16039W        W16520   4.281  11.703   8.676
16040W        W16521   4.067  14.415   8.352
16041W        W16522   5.399  13.745  10.477
16042W        W16523   4.434  13.230   7.836
16043W        W16524   6.114  12.615   9.057
16044W        W16525   6.394  12.414   9.456
16045W        W16526   5.599  13.088   9.390
16046W        W16527   6.069  13.462   7.522
16047W        W16528   5.741  11.483   8.850
16048W        W16529   7.220  11.761   8.118
16049W        W16530   3.714  14.350  10.149
16050W        W16531   4.131  13.576   9.681
16051W        W16532   3.698  14.422   7.913
16052W        W16533   5.597  11.692   9.719
16053W        W16534   4.960  13.715   7.568
16054W        W16535   6.865  14.097   7.754
16055W        W16536   5.840  12.750   7.768
16056W        W16537   4.683  11.941   8.285
16057W        W16538   5.515  11.851   7.337
16058W        W16539   6.099  13.416  10.515
16059W        W16540   6.452  11.322   8.132
16060W        W16541   3.782  11.170   7.580
16061W        W16542   5.068  13.489   9.870
16062W        W16543   4.867  13.405   8.962
16063W        W16544   4.609  13.357   7.360
16064W        W16545   3.850  13.598   8.128
16065W        W16546   4.354  12.668  10.570
16066W        W16547   5.058  11.228  10.756
16067W        W16548   5.767  11.370  10.112
16068W        W16549   4.962  11.138   8.393
16069W        W16550   6.021  11.215   7.898
16070W        W16551   3.966  11.147   9.475
16071W        W16552   4.014  12.110   8.845
16072W        W16553   6.703  11.218   9.251
16073W        W16554   4.125  11.716   8.065
16074W        W16555   6.696  11.404   9.681
16075W        W16556   7.092  12.607   7.366
16076W        W16557   4.384  11.365   9.185
16077W        W16558   5.498  11.937  10.125
16078W        W16559   4.432  13.016  10.164
16079W        W16560   5.790  12.414   9.343
16080W        W16561   5.657  14.493   7.639
16081W        W16562   3.803  13.000   7.336
16082W        W16563   4.538  13.411  10.462
16083W        W16564   4.059  12.578  10.093
16084W        W16565   5.050  12.683   9.887
16085W        W16566   6.818  11.042  10.149
16086W        W16567   7.216  12.652  10.140
16087W        W16568   7.204  12.852   7.826
16088W        W16569   6.067  13.184   7.925
16089W        W16570   6.541  14.484   7.620
16090W        W16571   5.718  12.474  10.762
16091W        W16572   4.048  13.441  10.802
16092W        W16573   7.254  11.363  10.754
16093W        W16574   6.972  12.291   9.375
16094W        W16575   5.280  14.421  10.852
16095W        W16576   5.135  11.050   7.579
16096W        W16577   6.674  13.649   7.522
16097W        W16578   4.877  13.736  10.270
16098W        W16579   7.003  11.727  10.068
16099W        W16580   6.214  14.386   8.036
16100W        W16581   6.453  13.005   9.403
16101W        W16582   4.703  11.421  10.070
16102W        W16583   5.172  12.490  10.827
16103W        W16584   4.675  13.669   8.021
16104W        W16585   6.430  13.167   8.285
16105W        W16586   4.198  11.793  10.009
16106W        W16587   5.527  13.855   8.473
16107W        W16588   7.277  12.415   8.654
16108W        W16589   5.499  11.048  10.373
16109W        W16590   6.279  13.753   9.452
16110W        W16591   6.582  14.097   9.160
16111W        W16592   5.801  13.899   7.588
16112W        W16593   3.811  13.791  10.430
16113W        W16594   4.554  11.783   9.668
16114W        W16595   4.524  11.131   8.778
16115W        W16596   6.145  11.973   9.470
16116W        W16597   4.943  13.144   7.670
16117W        W16598   6.941  13.086   9.169
16118W        W16599   4.268  13.844  10.592
16119W        W16600   6.655  14.526   8.389
16120W        W16601   4.754  11.546   8.834
16121W        W16602   4.523  13.039   8.924
16122W        W16603   4.836  14.450   9.674
16123W        W16604   6.903  14.546  10.706
16124W        W16605   6.062  12.734   9.639
16125W        W16606   3.911  12.532   7.554
16126W        W16607   7.045  14.190   8.251
16127W        W16608   6.882  11.514   7.870
16128W        W16609   5.021  11.033  10.273
16129W        W16610   6.727  13.835   8.731
16130W        W16611   6.756  12.391   8.636
16131W        W16612   4.873  12.064   8.852
16132W        W16613   5.118  12.326  10.176
16133W        W16614   6.229  13.479  10.039
16134W        W16615   4.879  11.933  10.151
16135W        W16616   4.858  14.399   8.767
16136W        W16617   4.175  14.358  10.401
16137W        W16618   4.287  13.719   7.531
16138W        W16619   6.804  13.477   8.341
16139W        W16620   4.408  12.269  10.227
16140W        W16621   7.181  12.199   7.708
16141W        W16622   4.926  13.256   8.179
16142W        W16623   6.025  12.638  10.260
16143W        W16624   5.916  12.266   9.804
16144W        W16625   4.476  12.638   9.833
16145W        W16626   6.686  14.526   9.662
16146W        W16627   6.477  11.160  10.656
16147W        W16628   4.141  11.310  10.243
16148W        W16629   4.480  12.333   9.296
16149W        W16630   4.849  12.147   7.418
16150W        W16631   3.652  13.906   9.963
16151W        W16632   5.237  12.615   9.406
16152W        W16633   5.060  11.640   7.511
16153W        W16634   4.195  12.456   8.292
16154W        W16635   3.966  14.308   9.729
16155W        W16636   6.761  12.534   7.837
16156W        W16637   6.856  11.450  10.523
16157W        W16638   6.292  13.659   8.486
16158W        W16639   3.890  12.583  10.663
16159W        W16640   6.856  11.047   7.959
16160W        W16641   5.278  12.580   8.055
16161W        W16642   6.465  11.384   7.578
16162W        W16643   6.530  11.991   9.764
16163W        W16644   4.239  12.584   8.971
16164W        W16645   4.533  13.523   8.620
16165W        W16646   6.296  12.143   8.585
16166W        W16647   5.319  11.522   9.281
16167W        W16648   7.281  13.433   9.792
16168W        W16649   7.199  11.420   9.353
16169W        W16650   3.738  14.250   8.729
16170W        W16651   4.247  13.437   8.265
16171W        W16652   4.162  11.054  10.818
16172W        W16653   5.281  13.907  10.920
16173W        W16654   7.036  12.875   8.710
16174W        W16655   6.390  13.052   7.590
16175W        W16656   5.685  14.573   9.802
16176W        W16657   6.542  13.295  10.839
16177W        W16658   5.357  11.005   8.119
16178W        W16659   6.070  11.874   8.978
16179W        W16660   3.756  13.461   9.310
16180W        W16661   5.009  11.423   7.951
16181W        W16662   4.813  12.907  10.800
16182W        W16663   5.807  11.888   8.514
16183W        W16664   6.012  13.298   9.636
16184W        W16665   4.166  13.903  10.071
16185W        W16666   4.757  13.886  10.794
16186W        W16667   4.608  11.683   7.808
16187W        W16668   6.125  11.825   8.133
16188W        W16669   6.083  13.933  10.370
16189W        W16670   4.768  12.525   8.969
16190W        W16671   4.423  14.223   9.834
16191W        W16672   7.168  14.340   7.435
16192W        W16673   4.031  13.012  10.431
16193W        W16674   6.026  13.274   9.119
16194W        W16675   4.462  12.923   8.361
16195W        W16676   4.833  13.930   9.756
16196W        W16677   5.211  11.349   8.797
16197W        W16678   3.822  13.333   7.727
16198W        W16679   5.341  12.284   7.597
16199W        W16680   3.987  12.833   8.616
16200W        W16681   5.277  11.475  10.080
16201W        W16682   6.949  11.184   7.507
16202W        W16683   7.042  12.930  10.606
16203W        W16684   5.696  14.187  10.758
16204W        W16685   7.254  13.281  10.280
16205W        W16686   6.662  14.079  10.891
16206W        W16687   4.401  14.535   9.369
16207W        W16688   7.260  13.157   8.243
16208W        W16689   5.790  12.424   8.756
16209W        W16690   5.557  11.036   8.646
16210W        W16691   4.616  14.020   8.483
16211W        W16692   5.115  11.761   9.708
16212W        W16693   4.815  11.130   9.177
16213W        W16694   3.878  13.952   7.725
16214W        W16695   5.694  13.316   8.443
16215W        W16696   4.569  14.111  10.322
16216W        W16697   4.046  12.934   8.018
16217W        W16698   3.931  11.477   9.017
16218W        W16699   5.479  13.442   9.074
16219W        W16700   3.731  11.296   8.094
16220W        W16701   6.395  12.502  10.021
16221W        W16702   6.272  11.888   7.593
16222W        W16703   6.789  13.560   9.241
16223W        W16704   5.450  14.044   9.072
16224W        W16705   4.862  14.148   7.983
16225W        W16706   6.144  11.051   7.413
16226W        W16707   3.944  14.311   9.154
16227W        W16708   6.141  12.069  10.789
16228W        W16709   4.124  11.599  10.788
16229W        W16710   3.855  12.199   8.121
16230W        W16711   4.546  12.188   7.846
16231W        W16712   6.309  12.515  10.663
16232W        W16713   4.652  12.796   9.372
16233W        W16714   6.126  11.082   8.492
16234W        W16715   5.257  14.513   8.995
16235W        W16716   6.471  13.975   9.932
16236W        W16717   6.055  14.124   9.043
16237W        W16718   5.536  11.329   7.708
16238W        W16719   7.217  10.957   8.430
16239W        W16720   4.905  12.592   7.593
16240W        W16721   7.071  11.929   8.583
16241W        W16722   5.763  13.099   7.460
16242W        W16723   6.699  13.299  10.208
16243W        W16724   6.353  14.000   7.675
16244W        W16725   4.968  11.675  10.581
16245W        W16726   4.788  12.259   9.822
16246W        W16727   6.880  13.754  10.099
16247W        W16728   5.980  11.704  10.476
16248W        W16729   3.824  12.175  10.253
16249W        W16730   5.584  12.652   9.979
16250W        W16731   3.941  13.410   8.636
16251W        W16732   4.088  12.707   9.526
16252W        W16733   6.177  14.373  10.687
16253W        W16734   6.073  12.112  10.240
16254W        W16735   6.350  14.166   8.645
16255W        W16736   5.352  13.886   9.968
16256W        W16737   4.837  14.241   9.237
16257W        W16738   6.642  13.412   9.656
16258W        W16739   5.692  13.484  10.793
16259W        W16740   4.297  13.437   9.132
16260W        W16741   6.643  13.196   8.777
16261W        W16742   6.284  14.262   9.528
16262W        W16743   4.262  13.991   9.398
16263W        W16744   5.283  12.043  10.608
16264W        W16745   5.734  14.209   8.119
16265W        W16746   5.042  13.464  10.757
16266W        W16747   5.168  13.702   8.134
16267W        W16748   4.389  12.442   7.393
16268W        W16749   3.728  14.528  14.292
16269W        W16750   4.104  13.421  13.815
16270W        W16751   6.809  13.151  11.585
16271W        W16752   6.939  14.236  13.612
16272W        W16753   4.857  14.227  11.138
16273W        W16754   4.940  12.379  12.121
16274W        W16755   4.455  12.227  12.285
16275W        W16756   5.446  13.042  11.719
16276W        W16757   5.121  14.134  14.074
16277W        W16758   3.770  11.695  14.037
16278W        W16759   4.532  10.975  13.839
16279W        W16760   6.226  11.363  12.726
16280W        W16761   5.875  12.234  11.296
16281W        W16762   6.445  11.668  14.387
16282W        W16763   3.811  11.460  13.512
16283W        W16764   3.910  14.079  14.533
16284W        W16765   5.432  13.469  11.265
16285W        W16766   3.864  12.252  12.958
16286W        W16767   4.757  12.143  14.195
16287W        W16768   7.216  12.002  12.694
16288W        W16769   6.980  13.045  13.553
16289W        W16770   5.288  12.378  12.580
16290W        W16771   5.834  13.717  12.949
16291W        W16772   4.334  13.151  13.181
16292W        W16773   3.693  12.679  12.752
16293W        W16774   4.729  12.651  13.944
16294W        W16775   7.000  12.434  14.198
16295W        W16776   4.616  13.878  12.643
16296W        W16777   5.737  13.567  13.777
16297W        W16778   4.957  12.207  13.002
16298W        W16779   5.249  12.991  12.645
16299W        W16780   6.246  13.764  14.493
16300W        W16781   5.325  13.084  14.503
16301W        W16782   5.306  12.800  13.981
16302W        W16783   3.715  12.191  14.503
16303W        W16784   6.547  13.726  14.102
16304W        W16785   4.128  11.308  12.100
16305W        W16786   4.655  13.566  13.099
16306W        W16787   7.118  13.349  12.389
16307W        W16788   6.531  11.749  12.956
16308W        W16789   6.816  11.702  11.051
16309W        W16790   7.281  12.503  13.357
16310W        W16791   5.248  14.210  13.110
16311W        W16792   7.022  13.676  11.548
16312W        W16793   4.151  14.462  11.302
16313W        W16794   4.544  14.508  11.978
16314W        W16795   4.341  11.262  13.404
16315W        W16796   6.964  12.280  13.679
16316W        W16797   6.369  12.702  12.138
16317W        W16798   6.335  12.390  11.165
16318W        W16799   5.543  13.534  13.305
16319W        W16800   5.349  11.864  12.504
16320W        W16801   5.949  13.951  13.498
16321W        W16802   6.820  12.742  11.920
16322W        W16803   5.722  11.400  11.936
16323W        W16804   4.379  14.094  11.619
16324W        W16805   3.750  11.593  12.218
16325W        W16806   6.536  12.200  12.692
16326W        W16807   3.994  13.817  12.607
16327W        W16808   5.335  14.167  11.477
16328W        W16809   6.727  12.193  10.941
16329W        W16810   3.750  13.951  13.105
16330W        W16811   4.541  13.523  13.585
16331W        W16812   4.914  12.883  12.204
16332W        W16813   4.936  11.288  13.297
16333W        W16814   7.165  11.050  12.594
16334W        W16815   4.384  12.922  11.062
16335W        W16816   4.039  11.955  11.241
16336W        W16817   4.101  13.911  12.035
16337W        W16818   5.232  13.394  12.283
16338W        W16819   6.564  14.253  13.997
16339W        W16820   5.490  11.895  11.681
16340W        W16821   6.873  14.293  12.453
16341W        W16822   6.550  12.146  14.051
16342W        W16823   7.263  13.802  12.185
16343W        W16824   5.890  13.094  13.669
16344W        W16825   3.656  12.645  11.875
16345W        W16826   4.767  13.060  13.448
16346W        W16827   5.971  12.324  11.826
16347W        W16828   4.191  12.234  13.404
16348W        W16829   4.176  12.110  14.326
16349W        W16830   4.066  11.027  12.485
16350W        W16831   5.834  11.374  13.046
16351W        W16832   5.482  11.559  14.209
16352W        W16833   5.837  11.708  11.387
16353W        W16834   7.020  14.101  14.141
16354W        W16835   5.987  11.182  14.180
16355W        W16836   7.006  13.483  14.302
16356W        W16837   6.436  11.650  13.898
16357W        W16838   6.236  11.588  12.168
16358W        W16839   6.629  12.722  14.572
16359W        W16840   4.369  14.298  12.558
16360W        W16841   5.027  12.015  11.544
16361W        W16842   4.596  11.299  14.208
16362W        W16843   6.648  11.783  11.889
16363W        W16844   7.015  12.265  11.834
16364W        W16845   4.758  14.482  14.305
16365W        W16846   4.684  11.018  11.540
16366W        W16847   7.005  11.552  12.575
16367W        W16848   7.155  13.801  11.020
16368W        W16849   4.062  13.004  12.722
16369W        W16850   5.979  11.591  10.952
16370W        W16851   7.113  13.923  12.672
16371W        W16852   7.152  11.117  13.422
16372W        W16853   5.597  12.329  13.976
16373W        W16854   5.690  13.668  11.679
16374W        W16855   6.090  12.962  14.419
16375W        W16856   5.764  10.939  12.728
16376W        W16857   4.376  11.842  12.791
16377W        W16858   3.930  13.042  13.565
16378W        W16859   5.789  14.235  12.271
16379W        W16860   6.983  11.832  13.143
16380W        W16861   5.620  14.179  13.910
16381W        W16862   6.963  13.238  11.115
16382W        W16863   5.398  12.721  12.176
16383W        W16864   7.250  11.232  13.917
16384W        W16865   5.399  13.067  13.511
16385W        W16866   5.616  11.953  12.956
16386W        W16867   6.468  12.251  11.794
16387W        W16868   6.755  11.984  11.436
16388W        W16869   6.564  14.024  11.825
16389W        W16870   6.398  13.627  12.621
16390W        W16871   6.294  12.706  11.599
16391W        W16872   5.727  12.916  12.585
16392W        W16873   6.608  12.704  12.652
16393W        W16874   3.983  11.719  13.076
16394W        W16875   6.761  12.771  13.903
16395W        W16876   7.112  14.389  13.049
16396W        W16877   5.042  13.833  12.451
16397W        W16878   6.049  14.366  13.775
16398W        W16879   6.043  11.696  13.539
16399W        W16880   5.250  14.404  13.600
16400W        W16881   6.947  11.358  12.066
16401W        W16882   3.721  11.998  13.405
16402W        W16883   6.581  11.793  12.423
16403W        W16884   6.992  11.944  14.200
16404W        W16885   5.877  13.643  12.418
16405W        W16886   5.133  14.234  12.031
16406W        W16887   4.248  11.414  11.289
16407W        W16888   5.352  11.068  13.099
16408W        W16889   4.380  14.188  10.947
16409W        W16890   4.754  12.654  11.698
16410W        W16891   5.408  13.283  14.011
16411W        W16892   5.238  11.641  12.001
16412W        W16893   6.594  11.238  12.429
16413W        W16894   6.314  14.520  12.757
16414W        W16895   5.726  14.168  13.097
16415W        W16896   5.122  13.205  13.058
16416W        W16897   6.892  13.928  13.184
16417W        W16898   4.586  11.431  11.953
16418W        W16899   5.108  13.728  12.913
16419W        W16900   4.591  11.659  10.978
16420W        W16901   5.392  12.268  13.372
16421W        W16902   6.240  11.134  13.242
16422W        W16903   3.660  12.977  13.127
16423W        W16904   5.364  12.795  11.285
16424W        W16905   4.632  11.110  11.055
16425W        W16906   5.370  12.191  12.106
16426W        W16907   6.340  11.167  13.805
16427W        W16908   4.928  13.179  13.914
16428W        W16909   5.732  12.961  14.131
16429W        W16910   6.349  12.991  14.024
16430W        W16911   5.633  11.131  14.529
16431W        W16912   4.855  11.747  12.922
16432W        W16913   4.281  11.703  12.320
16433W        W16914   4.067  14.415  11.996
16434W        W16915   5.399  13.745  14.121
16435W        W16916   4.434  13.230  11.480
16436W        W16917   6.114  12.615  12.701
16437W        W16918   6.394  12.414  13.100
16438W        W16919   5.599  13.088  13.034
16439W        W16920   6.069  13.462  11.166
16440W        W16921   5.741  11.483  12.494
16441W        W16922   7.220  11.761  11.762
16442W        W16923   3.714  14.350  13.793
16443W        W16924   4.131  13.576  13.325
16444W        W16925   3.698  14.422  11.557
16445W        W16926   5.597  11.692  13.363
16446W        W16927   4.960  13.715  11.212
16447W        W16928   6.865  14.097  11.398
16448W        W16929   5.840  12.750  11.412
16449W        W16930   4.683  11.941  11.929
16450W        W16931   5.515  11.851  10.981
16451W        W16932   6.099  13.416  14.159
16452W        W16933   6.452  11.322  11.776
16453W        W16934   3.782  11.170  11.224
16454W        W16935   5.068  13.489  13.514
16455W        W16936   4.867  13.405  12.606
16456W        W16937   4.609  13.357  11.004
16457W        W16938   3.850  13.598  11.772
16458W        W16939   4.354  12.668  14.214
16459W        W16940   5.058  11.228  14.400
16460W        W16941   5.767  11.370  13.756
16461W        W16942   4.962  11.138  12.037
16462W        W16943   6.021  11.215  11.542
16463W        W16944   3.966  11.147  13.119
16464W        W16945   4.014  12.110  12.489
16465W        W16946   6.703  11.218  12.895
16466W        W16947   4.125  11.716  11.709
16467W        W16948   6.696  11.404  13.325
16468W        W16949   7.092  12.607  11.010
16469W        W16950   4.384  11.365  12.829
16470W        W16951   5.498  11.937  13.769
16471W        W16952   3.646  11.627  11.247
16472W        W16953   4.432  13.016  13.808
16473W        W16954   5.790  12.414  12.987
16474W        W16955   5.657  14.493  11.283
16475W        W16956   3.803  13.000  10.980
16476W        W16957   4.538  13.411  14.106
16477W        W16958   4.059  12.578  13.737
16478W        W16959   5.050  12.683  13.531
16479W        W16960   6.818  11.042  13.793
16480W        W16961   7.216  12.652  13.784
16481W        W16962   7.204  12.852  11.470
16482W        W16963   6.067  13.184  11.569
16483W        W16964   6.541  14.484  11.264
16484W        W16965   5.718  12.474  14.406
16485W        W16966   4.048  13.441  14.446
16486W        W16967   7.254  11.363  14.398
16487W        W16968   6.972  12.291  13.019
16488W        W16969   5.280  14.421  14.496
16489W        W16970   5.135  11.050  11.223
16490W        W16971   6.674  13.649  11.166
16491W        W16972   4.443  11.742  14.052
16492W        W16973   4.877  13.736  13.914
16493W        W16974   7.003  11.727  13.712
16494W        W16975   6.214  14.386  11.680
16495W        W16976   6.453  13.005  13.047
16496W        W16977   4.703  11.421  13.714
16497W        W16978   5.172  12.490  14.471
16498W        W16979   4.675  13.669  11.665
16499W        W16980   6.430  13.167  11.929
16500W        W16981   4.198  11.793  13.653
16501W        W16982   5.527  13.855  12.117
16502W        W16983   7.277  12.415  12.298
16503W        W16984   5.499  11.048  14.017
16504W        W16985   6.279  13.753  13.096
16505W        W16986   6.582  14.097  12.804
16506W        W16987   5.801  13.899  11.232
16507W        W16988   3.811  13.791  14.074
16508W        W16989   4.554  11.783  13.312
16509W        W16990   4.524  11.131  12.422
16510W        W16991   6.145  11.973  13.114
16511W        W16992   4.943  13.144  11.314
16512W        W16993   6.941  13.086  12.813
16513W        W16994   4.268  13.844  14.236
16514W        W16995   6.655  14.526  12.033
16515W        W16996   4.754  11.546  12.478
16516W        W16997   4.523  13.039  12.568
16517W        W16998   4.836  14.450  13.318
16518W        W16999   6.903  14.546  14.350
16519W        W17000   6.062  12.734  13.283
16520W        W17001   3.911  12.532  11.198
16521W        W17002   7.045  14.190  11.895
16522W        W17003   6.882  11.514  11.514
16523W        W17004   5.021  11.033  13.917
16524W        W17005   6.727  13.835  12.375
16525W        W17006   6.756  12.391  12.280
16526W        W17007   4.873  12.064  12.496
16527W        W17008   5.118  12.326  13.820
16528W        W17009   6.229  13.479  13.683
16529W        W17010   4.879  11.933  13.795
16530W        W17011   4.858  14.399  12.411
16531W        W17012   4.175  14.358  14.045
16532W        W17013   4.287  13.719  11.175
16533W        W17014   6.804  13.477  11.985
16534W        W17015   4.408  12.269  13.871
16535W        W17016   7.181  12.199  11.352
16536W        W17017   4.926  13.256  11.823
16537W        W17018   6.025  12.638  13.904
16538W        W17019   5.916  12.266  13.448
16539W        W17020   4.476  12.638  13.477
16540W        W17021   6.686  14.526  13.306
16541W        W17022   6.477  11.160  14.300
16542W        W17023   4.141  11.310  13.887
16543W        W17024   4.480  12.333  12.940
16544W        W17025   4.849  12.147  11.062
16545W        W17026   3.652  13.906  13.607
16546W        W17027   5.237  12.615  13.050
16547W        W17028   5.060  11.640  11.155
16548W        W17029   4.195  12.456  11.936
16549W        W17030   3.966  14.308  13.373
16550W        W17031   6.761  12.534  11.481
16551W        W17032   6.856  11.450  14.167
16552W        W17033   6.292  13.659  12.130
16553W        W17034   3.890  12.583  14.307
16554W        W17035   6.856  11.047  11.603
16555W        W17036   6.376  13.522  11.614
16556W        W17037   5.278  12.580  11.699
16557W        W17038   6.465  11.384  11.222
16558W        W17039   6.530  11.991  13.408
16559W        W17040   4.239  12.584  12.615
16560W        W17041   4.533  13.523  12.264
16561W        W17042   6.296  12.143  12.229
16562W        W17043   5.319  11.522  12.925
16563W        W17044   7.281  13.433  13.436
16564W        W17045   7.199  11.420  12.997
16565W        W17046   3.738  14.250  12.373
16566W        W17047   4.247  13.437  11.909
16567W        W17048   4.162  11.054  14.462
16568W        W17049   5.281  13.907  14.564
16569W        W17050   7.036  12.875  12.354
16570W        W17051   6.390  13.052  11.234
16571W        W17052   5.685  14.573  13.446
16572W        W17053   6.542  13.295  14.483
16573W        W17054   5.357  11.005  11.763
16574W        W17055   6.070  11.874  12.622
16575W        W17056   3.756  13.461  12.954
16576W        W17057   5.009  11.423  11.595
16577W        W17058   4.813  12.907  14.444
16578W        W17059   5.807  11.888  12.158
16579W        W17060   6.012  13.298  13.280
16580W        W17061   4.166  13.903  13.715
16581W        W17062   4.757  13.886  14.438
16582W        W17063   4.608  11.683  11.452
16583W        W17064   6.125  11.825  11.777
16584W        W17065   6.083  13.933  14.014
16585W        W17066   4.768  12.525  12.613
16586W        W17067   4.423  14.223  13.478
16587W        W17068   7.168  14.340  11.079
16588W        W17069   4.031  13.012  14.075
16589W        W17070   6.026  13.274  12.763
16590W        W17071   4.462  12.923  12.005
16591W        W17072   4.833  13.930  13.400
16592W        W17073   5.211  11.349  12.441
16593W        W17074   3.822  13.333  11.371
16594W        W17075   5.341  12.284  11.241
16595W        W17076   3.987  12.833  12.260
16596W        W17077   5.277  11.475  13.724
16597W        W17078   6.949  11.184  11.151
16598W        W17079   7.042  12.930  14.250
16599W        W17080   5.696  14.187  14.402
16600W        W17081   7.254  13.281  13.924
16601W        W17082   6.662  14.079  14.535
16602W        W17083   4.401  14.535  13.013
16603W        W17084   7.260  13.157  11.887
16604W        W17085   5.790  12.424  12.400
16605W        W17086   5.557  11.036  12.290
16606W        W17087   4.616  14.020  12.127
16607W        W17088   5.115  11.761  13.352
16608W        W17089   4.815  11.130  12.821
16609W        W17090   3.878  13.952  11.369
16610W        W17091   5.694  13.316  12.087
16611W        W17092   4.569  14.111  13.966
16612W        W17093   4.046  12.934  11.662
16613W        W17094   3.931  11.477  12.661
16614W        W17095   5.479  13.442  12.718
16615W        W17096   3.731  11.296  11.738
16616W        W17097   6.395  12.502  13.665
16617W        W17098   6.272  11.888  11.237
16618W        W17099   6.789  13.560  12.885
16619W        W17100   5.450  14.044  12.716
16620W        W17101   4.862  14.148  11.627
16621W        W17102   6.144  11.051  11.057
16622W        W17103   3.944  14.311  12.798
16623W        W17104   6.141  12.069  14.433
16624W        W17105   4.124  11.599  14.432
16625W        W17106   3.855  12.199  11.765
16626W        W17107   4.546  12.188  11.490
16627W        W17108   6.309  12.515  14.307
16628W        W17109   4.652  12.796  13.016
16629W        W17110   6.126  11.082  12.136
16630W        W17111   5.257  14.513  12.639
16631W        W17112   6.471  13.975  13.576
16632W        W17113   6.055  14.124  12.687
16633W        W17114   6.074  13.104  12.281
16634W        W17115   5.536  11.329  11.352
16635W        W17116   7.217  10.957  12.074
16636W        W17117   4.905  12.592  11.237
16637W        W17118   7.071  11.929  12.227
16638W        W17119   5.763  13.099  11.104
16639W        W17120   6.699  13.299  13.852
16640W        W17121   6.353  14.000  11.319
16641W        W17122   4.968  11.675  14.225
16642W        W17123   4.788  12.259  13.466
16643W        W17124   6.880  13.754  13.743
16644W        W17125   5.980  11.704  14.120
16645W        W17126   3.824  12.175  13.897
16646W        W17127   5.584  12.652  13.623
16647W        W17128   3.941  13.410  12.280
16648W        W17129   4.088  12.707  13.170
16649W        W17130   6.405  12.993  13.520
16650W        W17131   6.177  14.373  14.331
16651W        W17132   6.073  12.112  13.884
16652W        W17133   6.350  14.166  12.289
16653W        W17134   5.352  13.886  13.612
16654W        W17135   4.837  14.241  12.881
16655W        W17136   6.642  13.412  13.300
16656W        W17137   5.692  13.484  14.437
16657W        W17138   4.297  13.437  12.776
16658W        W17139   6.643  13.196  12.421
16659W        W17140   6.284  14.262  13.172
16660W        W17141   4.262  13.991  13.042
16661W        W17142   5.283  12.043  14.252
16662W        W17143   5.734  14.209  11.763
16663W        W17144   5.042  13.464  14.401
16664W        W17145   5.168  13.702  11.778
16665W        W17146   4.389  12.442  11.037
16666W        W17147   4.104  13.421  17.459
16667W        W17148   6.809  13.151  15.229
16668W        W17149   6.939  14.236  17.256
16669W        W17150   4.857  14.227  14.782
16670W        W17151   4.940  12.379  15.765
16671W        W17152   4.455  12.227  15.929
16672W        W17153   5.446  13.042  15.363
16673W        W17154   5.121  14.134  17.718
16674W        W17155   3.770  11.695  17.681
16675W        W17156   4.532  10.975  17.483
16676W        W17157   6.226  11.363  16.370
16677W        W17158   5.875  12.234  14.940
16678W        W17159   3.811  11.460  17.156
16679W        W17160   5.432  13.469  14.909
16680W        W17161   3.864  12.252  16.602
16681W        W17162   7.216  12.002  16.338
16682W        W17163   6.980  13.045  17.197
16683W        W17164   5.288  12.378  16.224
16684W        W17165   5.834  13.717  16.593
16685W        W17166   4.334  13.151  16.825
16686W        W17167   3.693  12.679  16.396
16687W        W17168   4.729  12.651  17.588
16688W        W17169   4.616  13.878  16.287
16689W        W17170   5.737  13.567  17.421
16690W        W17171   4.957  12.207  16.646
16691W        W17172   5.249  12.991  16.289
16692W        W17173   5.306  12.800  17.625
16693W        W17174   6.547  13.726  17.746
16694W        W17175   4.128  11.308  15.744
16695W        W17176   4.655  13.566  16.743
16696W        W17177   7.118  13.349  16.033
16697W        W17178   6.531  11.749  16.600
16698W        W17179   6.816  11.702  14.695
16699W        W17180   7.281  12.503  17.001
16700W        W17181   5.248  14.210  16.754
16701W        W17182   7.022  13.676  15.192
16702W        W17183   4.151  14.462  14.946
16703W        W17184   4.544  14.508  15.622
16704W        W17185   4.341  11.262  17.048
16705W        W17186   6.964  12.280  17.323
16706W        W17187   6.369  12.702  15.782
16707W        W17188   6.335  12.390  14.809
16708W        W17189   5.543  13.534  16.949
16709W        W17190   5.349  11.864  16.148
16710W        W17191   5.949  13.951  17.142
16711W        W17192   6.820  12.742  15.564
16712W        W17193   5.722  11.400  15.580
16713W        W17194   4.379  14.094  15.263
16714W        W17195   3.750  11.593  15.862
16715W        W17196   6.536  12.200  16.336
16716W        W17197   3.994  13.817  16.251
16717W        W17198   5.335  14.167  15.121
16718W        W17199   6.727  12.193  14.585
16719W        W17200   3.750  13.951  16.749
16720W        W17201   4.541  13.523  17.229
16721W        W17202   4.914  12.883  15.848
16722W        W17203   4.936  11.288  16.941
16723W        W17204   7.165  11.050  16.238
16724W        W17205   4.384  12.922  14.706
16725W        W17206   4.039  11.955  14.885
16726W        W17207   4.101  13.911  15.679
16727W        W17208   5.232  13.394  15.927
16728W        W17209   6.564  14.253  17.641
16729W        W17210   5.490  11.895  15.325
16730W        W17211   6.873  14.293  16.097
16731W        W17212   7.263  13.802  15.829
16732W        W17213   5.890  13.094  17.313
16733W        W17214   3.656  12.645  15.519
16734W        W17215   4.767  13.060  17.092
16735W        W17216   5.971  12.324  15.470
16736W        W17217   5.848  12.814  15.574
16737W        W17218   4.191  12.234  17.048
16738W        W17219   4.066  11.027  16.129
16739W        W17220   5.834  11.374  16.690
16740W        W17221   5.837  11.708  15.031
16741W        W17222   7.020  14.101  17.785
16742W        W17223   5.987  11.182  17.824
16743W        W17224   6.436  11.650  17.542
16744W        W17225   6.236  11.588  15.812
16745W        W17226   4.369  14.298  16.202
16746W        W17227   5.027  12.015  15.188
16747W        W17228   6.648  11.783  15.533
16748W        W17229   7.015  12.265  15.478
16749W        W17230   4.684  11.018  15.184
16750W        W17231   7.005  11.552  16.219
16751W        W17232   7.155  13.801  14.664
16752W        W17233   4.062  13.004  16.366
16753W        W17234   5.979  11.591  14.596
16754W        W17235   7.113  13.923  16.316
16755W        W17236   7.152  11.117  17.066
16756W        W17237   5.597  12.329  17.620
16757W        W17238   5.690  13.668  15.323
16758W        W17239   5.764  10.939  16.372
16759W        W17240   4.376  11.842  16.435
16760W        W17241   3.930  13.042  17.209
16761W        W17242   5.789  14.235  15.915
16762W        W17243   6.983  11.832  16.787
16763W        W17244   5.620  14.179  17.554
16764W        W17245   6.963  13.238  14.759
16765W        W17246   5.398  12.721  15.820
16766W        W17247   7.250  11.232  17.561
16767W        W17248   5.399  13.067  17.155
16768W        W17249   5.616  11.953  16.600
16769W        W17250   6.468  12.251  15.438
16770W        W17251   6.755  11.984  15.080
16771W        W17252   6.564  14.024  15.469
16772W        W17253   6.398  13.627  16.265
16773W        W17254   6.294  12.706  15.243
16774W        W17255   5.727  12.916  16.229
16775W        W17256   6.608  12.704  16.296
16776W        W17257   3.983  11.719  16.720
16777W        W17258   6.761  12.771  17.547
16778W        W17259   7.112  14.389  16.693
16779W        W17260   5.042  13.833  16.095
16780W        W17261   6.049  14.366  17.419
16781W        W17262   6.043  11.696  17.183
16782W        W17263   5.250  14.404  17.244
16783W        W17264   6.947  11.358  15.710
16784W        W17265   6.738  12.677  17.011
16785W        W17266   3.721  11.998  17.049
16786W        W17267   6.581  11.793  16.067
16787W        W17268   5.877  13.643  16.062
16788W        W17269   5.133  14.234  15.675
16789W        W17270   4.248  11.414  14.933
16790W        W17271   5.352  11.068  16.743
16791W        W17272   4.380  14.188  14.591
16792W        W17273   4.754  12.654  15.342
16793W        W17274   5.408  13.283  17.655
16794W        W17275   5.238  11.641  15.645
16795W        W17276   6.594  11.238  16.073
16796W        W17277   5.726  14.168  16.741
16797W        W17278   5.122  13.205  16.702
16798W        W17279   6.892  13.928  16.828
16799W        W17280   4.586  11.431  15.597
16800W        W17281   5.108  13.728  16.557
16801W        W17282   4.591  11.659  14.622
16802W        W17283   5.392  12.268  17.016
16803W        W17284   6.240  11.134  16.886
16804W        W17285   3.660  12.977  16.771
16805W        W17286   5.364  12.795  14.929
16806W        W17287   4.632  11.110  14.699
16807W        W17288   5.370  12.191  15.750
16808W        W17289   6.340  11.167  17.449
16809W        W17290   4.928  13.179  17.558
16810W        W17291   6.349  12.991  17.668
16811W        W17292   4.855  11.747  16.566
16812W        W17293   4.281  11.703  15.964
16813W        W17294   4.067  14.415  15.640
16814W        W17295   5.399  13.745  17.765
16815W        W17296   4.434  13.230  15.124
16816W        W17297   6.114  12.615  16.345
16817W        W17298   6.394  12.414  16.744
16818W        W17299   5.599  13.088  16.678
16819W        W17300   6.069  13.462  14.810
16820W        W17301   5.741  11.483  16.138
16821W        W17302   7.220  11.761  15.406
16822W        W17303   3.714  14.350  17.437
16823W        W17304   4.131  13.576  16.969
16824W        W17305   3.698  14.422  15.201
16825W        W17306   5.597  11.692  17.007
16826W        W17307   4.960  13.715  14.856
16827W        W17308   6.865  14.097  15.042
16828W        W17309   5.840  12.750  15.056
16829W        W17310   4.683  11.941  15.573
16830W        W17311   5.515  11.851  14.625
16831W        W17312   6.452  11.322  15.420
16832W        W17313   3.782  11.170  14.868
16833W        W17314   5.068  13.489  17.158
16834W        W17315   4.867  13.405  16.250
16835W        W17316   4.609  13.357  14.648
16836W        W17317   3.850  13.598  15.416
16837W        W17318   5.767  11.370  17.400
16838W        W17319   4.962  11.138  15.681
16839W        W17320   6.021  11.215  15.186
16840W        W17321   3.966  11.147  16.763
16841W        W17322   4.014  12.110  16.133
16842W        W17323   6.703  11.218  16.539
16843W        W17324   4.125  11.716  15.353
16844W        W17325   6.696  11.404  16.969
16845W        W17326   7.092  12.607  14.654
16846W        W17327   4.384  11.365  16.473
16847W        W17328   5.498  11.937  17.413
16848W        W17329   3.646  11.627  14.891
16849W        W17330   4.432  13.016  17.452
16850W        W17331   5.790  12.414  16.631
16851W        W17332   5.657  14.493  14.927
16852W        W17333   3.803  13.000  14.624
16853W        W17334   4.059  12.578  17.381
16854W        W17335   5.050  12.683  17.175
16855W        W17336   6.818  11.042  17.437
16856W        W17337   7.216  12.652  17.428
16857W        W17338   7.204  12.852  15.114
16858W        W17339   6.067  13.184  15.213
16859W        W17340   6.541  14.484  14.908
16860W        W17341   6.972  12.291  16.663
16861W        W17342   5.135  11.050  14.867
16862W        W17343   6.674  13.649  14.810
16863W        W17344   4.877  13.736  17.558
16864W        W17345   7.003  11.727  17.356
16865W        W17346   6.214  14.386  15.324
16866W        W17347   6.453  13.005  16.691
16867W        W17348   4.703  11.421  17.358
16868W        W17349   4.675  13.669  15.309
16869W        W17350   6.430  13.167  15.573
16870W        W17351   4.198  11.793  17.297
16871W        W17352   5.527  13.855  15.761
16872W        W17353   7.277  12.415  15.942
16873W        W17354   5.499  11.048  17.661
16874W        W17355   6.279  13.753  16.740
16875W        W17356   6.582  14.097  16.448
16876W        W17357   5.801  13.899  14.876
16877W        W17358   3.811  13.791  17.718
16878W        W17359   4.554  11.783  16.956
16879W        W17360   4.524  11.131  16.066
16880W        W17361   6.145  11.973  16.758
16881W        W17362   4.943  13.144  14.958
16882W        W17363   6.941  13.086  16.457
16883W        W17364   6.655  14.526  15.677
16884W        W17365   4.754  11.546  16.122
16885W        W17366   4.523  13.039  16.212
16886W        W17367   4.836  14.450  16.962
16887W        W17368   6.062  12.734  16.927
16888W        W17369   3.911  12.532  14.842
16889W        W17370   7.045  14.190  15.539
16890W        W17371   6.882  11.514  15.158
16891W        W17372   5.021  11.033  17.561
16892W        W17373   6.727  13.835  16.019
16893W        W17374   6.756  12.391  15.924
16894W        W17375   4.873  12.064  16.140
16895W        W17376   5.118  12.326  17.464
16896W        W17377   6.229  13.479  17.327
16897W        W17378   4.879  11.933  17.439
16898W        W17379   4.858  14.399  16.055
16899W        W17380   4.287  13.719  14.819
16900W        W17381   6.804  13.477  15.629
16901W        W17382   4.408  12.269  17.515
16902W        W17383   7.181  12.199  14.996
16903W        W17384   4.926  13.256  15.467
16904W        W17385   6.025  12.638  17.548
16905W        W17386   5.916  12.266  17.092
16906W        W17387   4.476  12.638  17.121
16907W        W17388   6.686  14.526  16.950
16908W        W17389   4.141  11.310  17.531
16909W        W17390   4.480  12.333  16.584
16910W        W17391   4.849  12.147  14.706
16911W        W17392   3.652  13.906  17.251
16912W        W17393   5.237  12.615  16.694
16913W        W17394   5.060  11.640  14.799
16914W        W17395   4.195  12.456  15.580
16915W        W17396   3.966  14.308  17.017
16916W        W17397   6.761  12.534  15.125
16917W        W17398   6.292  13.659  15.774
16918W        W17399   6.856  11.047  15.247
16919W        W17400   6.376  13.522  15.258
16920W        W17401   5.278  12.580  15.343
16921W        W17402   6.465  11.384  14.866
16922W        W17403   6.530  11.991  17.052
16923W        W17404   4.239  12.584  16.259
16924W        W17405   4.533  13.523  15.908
16925W        W17406   6.296  12.143  15.873
16926W        W17407   7.281  13.433  17.080
16927W        W17408   7.199  11.420  16.641
16928W        W17409   3.738  14.250  16.017
16929W        W17410   4.247  13.437  15.553
16930W        W17411   7.036  12.875  15.998
16931W        W17412   6.390  13.052  14.878
16932W        W17413   5.685  14.573  17.090
16933W        W17414   5.357  11.005  15.407
16934W        W17415   6.070  11.874  16.266
16935W        W17416   3.756  13.461  16.598
16936W        W17417   5.009  11.423  15.239
16937W        W17418   5.807  11.888  15.802
16938W        W17419   6.012  13.298  16.924
16939W        W17420   4.166  13.903  17.359
16940W        W17421   4.608  11.683  15.096
16941W        W17422   6.125  11.825  15.421
16942W        W17423   6.083  13.933  17.658
16943W        W17424   4.768  12.525  16.257
16944W        W17425   4.423  14.223  17.122
16945W        W17426   7.168  14.340  14.723
16946W        W17427   6.026  13.274  16.407
16947W        W17428   4.462  12.923  15.649
16948W        W17429   4.833  13.930  17.044
16949W        W17430   5.211  11.349  16.085
16950W        W17431   3.822  13.333  15.015
16951W        W17432   5.341  12.284  14.885
16952W        W17433   3.987  12.833  15.904
16953W        W17434   5.277  11.475  17.368
16954W        W17435   6.949  11.184  14.795
16955W        W17436   7.254  13.281  17.568
16956W        W17437   4.401  14.535  16.657
16957W        W17438   7.260  13.157  15.531
16958W        W17439   5.790  12.424  16.044
16959W        W17440   5.557  11.036  15.934
16960W        W17441   4.616  14.020  15.771
16961W        W17442   5.115  11.761  16.996
16962W        W17443   4.815  11.130  16.465
16963W        W17444   3.878  13.952  15.013
16964W        W17445   5.694  13.316  15.731
16965W        W17446   4.569  14.111  17.610
16966W        W17447   4.046  12.934  15.306
16967W        W17448   3.931  11.477  16.305
16968W        W17449   5.479  13.442  16.362
16969W        W17450   3.731  11.296  15.382
16970W        W17451   6.395  12.502  17.309
16971W        W17452   6.272  11.888  14.881
16972W        W17453   5.450  14.044  16.360
16973W        W17454   4.862  14.148  15.271
16974W        W17455   6.144  11.051  14.701
16975W        W17456   3.944  14.311  16.442
16976W        W17457   3.855  12.199  15.409
16977W        W17458   4.546  12.188  15.134
16978W        W17459   4.652  12.796  16.660
16979W        W17460   6.126  11.082  15.780
16980W        W17461   5.257  14.513  16.283
16981W        W17462   6.471  13.975  17.220
16982W        W17463   6.055  14.124  16.331
16983W        W17464   6.074  13.104  15.925
16984W        W17465   5.536  11.329  14.996
16985W        W17466   7.217  10.957  15.718
16986W        W17467   4.905  12.592  14.881
16987W        W17468   7.071  11.929  15.871
16988W        W17469   5.763  13.099  14.748
16989W        W17470   6.699  13.299  17.496
16990W        W17471   6.353  14.000  14.963
16991W        W17472   4.788  12.259  17.110
16992W        W17473   6.880  13.754  17.387
16993W        W17474   3.824  12.175  17.541
16994W        W17475   5.584  12.652  17.267
16995W        W17476   3.941  13.410  15.924
16996W        W17477   4.088  12.707  16.814
16997W        W17478   6.405  12.993  17.164
16998W        W17479   6.177  14.373  17.975
16999W        W17480   6.073  12.112  17.528
17000W        W17481   6.350  14.166  15.933
17001W        W17482   5.352  13.886  17.256
17002W        W17483   4.837  14.241  16.525
17003W        W17484   6.642  13.412  16.944
17004W        W17485   4.297  13.437  16.420
17005W        W17486   6.643  13.196  16.065
17006W        W17487   6.284  14.262  16.816
17007W        W17488   4.262  13.991  16.686
17008W        W17489   5.168  13.702  15.422
17009W        W17490   4.389  12.442  14.681
17010W        W17491   4.104  17.065   2.882
17011W        W17492   6.809  16.795   0.652
17012W        W17493   4.940  16.023   1.188
17013W        W17494   4.455  15.871   1.352
17014W        W17495   5.446  16.686   0.786
17015W        W17496   3.770  15.339   3.104
17016W        W17497   4.532  14.619   2.906
17017W        W17498   6.226  15.007   1.793
17018W        W17499   5.875  15.878   0.363
17019W        W17500   6.445  15.312   3.454
17020W        W17501   3.811  15.104   2.579
17021W        W17502   3.910  17.723   3.600
17022W        W17503   5.432  17.113   0.332
17023W        W17504   3.864  15.896   2.025
17024W        W17505   4.757  15.787   3.262
17025W        W17506   7.216  15.646   1.761
17026W        W17507   6.980  16.689   2.620
17027W        W17508   5.834  17.361   2.016
17028W        W17509   4.334  16.795   2.248
17029W        W17510   3.693  16.323   1.819
17030W        W17511   4.729  16.295   3.011
17031W        W17512   7.000  16.078   3.265
17032W        W17513   4.616  17.522   1.710
17033W        W17514   5.737  17.211   2.844
17034W        W17515   4.957  15.851   2.069
17035W        W17516   6.246  17.408   3.560
17036W        W17517   5.325  16.728   3.570
17037W        W17518   5.306  16.444   3.048
17038W        W17519   3.715  15.835   3.570
17039W        W17520   6.547  17.370   3.169
17040W        W17521   4.128  14.952   1.167
17041W        W17522   4.655  17.210   2.166
17042W        W17523   7.118  16.993   1.456
17043W        W17524   6.531  15.393   2.023
17044W        W17525   6.816  15.346   0.118
17045W        W17526   7.281  16.147   2.424
17046W        W17527   7.022  17.320   0.615
17047W        W17528   4.341  14.906   2.471
17048W        W17529   6.964  15.924   2.746
17049W        W17530   6.369  16.346   1.205
17050W        W17531   6.335  16.034   0.232
17051W        W17532   5.543  17.178   2.372
17052W        W17533   5.349  15.508   1.571
17053W        W17534   5.949  17.595   2.565
17054W        W17535   6.820  16.386   0.987
17055W        W17536   5.722  15.044   1.003
17056W        W17537   4.379  17.738   0.686
17057W        W17538   3.750  15.237   1.285
17058W        W17539   6.536  15.844   1.759
17059W        W17540   3.994  17.461   1.674
17060W        W17541   6.727  15.837   0.008
17061W        W17542   3.750  17.595   2.172
17062W        W17543   4.541  17.167   2.652
17063W        W17544   4.914  16.527   1.271
17064W        W17545   4.936  14.932   2.364
17065W        W17546   7.165  14.694   1.661
17066W        W17547   4.384  16.566   0.129
17067W        W17548   4.039  15.599   0.308
17068W        W17549   4.101  17.555   1.102
17069W        W17550   5.232  17.038   1.350
17070W        W17551   5.490  15.539   0.748
17071W        W17552   6.550  15.790   3.118
17072W        W17553   7.263  17.446   1.252
17073W        W17554   5.890  16.738   2.736
17074W        W17555   3.656  16.289   0.942
17075W        W17556   4.767  16.704   2.515
17076W        W17557   5.971  15.968   0.893
17077W        W17558   5.848  16.458   0.997
17078W        W17559   4.191  15.878   2.471
17079W        W17560   4.176  15.754   3.393
17080W        W17561   5.834  15.018   2.113
17081W        W17562   5.482  15.203   3.276
17082W        W17563   5.837  15.352   0.454
17083W        W17564   7.020  17.745   3.208
17084W        W17565   5.987  14.826   3.247
17085W        W17566   7.006  17.127   3.369
17086W        W17567   6.436  15.294   2.965
17087W        W17568   6.236  15.232   1.235
17088W        W17569   6.629  16.366   3.639
17089W        W17570   5.027  15.659   0.611
17090W        W17571   4.596  14.943   3.275
17091W        W17572   6.648  15.427   0.956
17092W        W17573   7.015  15.909   0.901
17093W        W17574   4.684  14.662   0.607
17094W        W17575   7.005  15.196   1.642
17095W        W17576   7.155  17.445   0.087
17096W        W17577   4.062  16.648   1.789
17097W        W17578   5.979  15.235   0.019
17098W        W17579   7.113  17.567   1.739
17099W        W17580   7.152  14.761   2.489
17100W        W17581   5.597  15.973   3.043
17101W        W17582   5.690  17.312   0.746
17102W        W17583   6.090  16.606   3.486
17103W        W17584   5.764  14.583   1.795
17104W        W17585   4.376  15.486   1.858
17105W        W17586   3.930  16.686   2.632
17106W        W17587   6.983  15.476   2.210
17107W        W17588   6.963  16.882   0.182
17108W        W17589   5.398  16.365   1.243
17109W        W17590   7.250  14.876   2.984
17110W        W17591   5.399  16.711   2.578
17111W        W17592   5.616  15.597   2.023
17112W        W17593   6.468  15.895   0.861
17113W        W17594   6.755  15.628   0.503
17114W        W17595   6.564  17.668   0.892
17115W        W17596   6.398  17.271   1.688
17116W        W17597   6.294  16.350   0.666
17117W        W17598   5.727  16.560   1.652
17118W        W17599   6.608  16.348   1.719
17119W        W17600   3.983  15.363   2.143
17120W        W17601   6.761  16.415   2.970
17121W        W17602   5.042  17.477   1.518
17122W        W17603   6.043  15.340   2.606
17123W        W17604   6.947  15.002   1.133
17124W        W17605   6.738  16.321   2.434
17125W        W17606   3.721  15.642   2.472
17126W        W17607   6.581  15.437   1.490
17127W        W17608   6.992  15.588   3.267
17128W        W17609   5.877  17.287   1.485
17129W        W17610   4.248  15.058   0.356
17130W        W17611   5.352  14.712   2.166
17131W        W17612   4.380  17.832   0.014
17132W        W17613   4.754  16.298   0.765
17133W        W17614   5.408  16.927   3.078
17134W        W17615   5.238  15.285   1.068
17135W        W17616   6.594  14.882   1.496
17136W        W17617   5.122  16.849   2.125
17137W        W17618   6.892  17.572   2.251
17138W        W17619   4.586  15.075   1.020
17139W        W17620   5.108  17.372   1.980
17140W        W17621   4.591  15.303   0.045
17141W        W17622   5.392  15.912   2.439
17142W        W17623   6.240  14.778   2.309
17143W        W17624   3.660  16.621   2.194
17144W        W17625   5.364  16.439   0.352
17145W        W17626   4.632  14.754   0.122
17146W        W17627   5.370  15.835   1.173
17147W        W17628   6.340  14.811   2.872
17148W        W17629   4.928  16.823   2.981
17149W        W17630   5.732  16.605   3.198
17150W        W17631   6.349  16.635   3.091
17151W        W17632   5.633  14.775   3.596
17152W        W17633   4.855  15.391   1.989
17153W        W17634   4.281  15.347   1.387
17154W        W17635   5.399  17.389   3.188
17155W        W17636   4.434  16.874   0.547
17156W        W17637   6.114  16.259   1.768
17157W        W17638   6.394  16.058   2.167
17158W        W17639   5.599  16.732   2.101
17159W        W17640   6.069  17.106   0.233
17160W        W17641   5.741  15.127   1.561
17161W        W17642   7.220  15.405   0.829
17162W        W17643   4.131  17.220   2.392
17163W        W17644   5.597  15.336   2.430
17164W        W17645   4.960  17.359   0.279
17165W        W17646   5.840  16.394   0.479
17166W        W17647   4.683  15.585   0.996
17167W        W17648   5.515  15.495   0.048
17168W        W17649   6.099  17.060   3.226
17169W        W17650   6.452  14.966   0.843
17170W        W17651   3.782  14.814   0.291
17171W        W17652   5.068  17.133   2.581
17172W        W17653   4.867  17.049   1.673
17173W        W17654   4.609  17.001   0.071
17174W        W17655   3.850  17.242   0.839
17175W        W17656   4.354  16.312   3.281
17176W        W17657   5.058  14.872   3.467
17177W        W17658   5.767  15.014   2.823
17178W        W17659   6.021  14.859   0.609
17179W        W17660   3.966  14.791   2.186
17180W        W17661   4.014  15.754   1.556
17181W        W17662   6.703  14.862   1.962
17182W        W17663   4.125  15.360   0.776
17183W        W17664   6.696  15.048   2.392
17184W        W17665   7.092  16.251   0.077
17185W        W17666   4.384  15.009   1.896
17186W        W17667   5.498  15.581   2.836
17187W        W17668   3.646  15.271   0.314
17188W        W17669   4.432  16.660   2.875
17189W        W17670   5.790  16.058   2.054
17190W        W17671   3.803  16.644   0.047
17191W        W17672   4.538  17.055   3.173
17192W        W17673   4.059  16.222   2.804
17193W        W17674   5.050  16.327   2.598
17194W        W17675   6.818  14.686   2.860
17195W        W17676   7.216  16.296   2.851
17196W        W17677   7.204  16.496   0.537
17197W        W17678   6.067  16.828   0.636
17198W        W17679   5.718  16.118   3.473
17199W        W17680   4.048  17.085   3.513
17200W        W17681   7.254  15.007   3.465
17201W        W17682   6.972  15.935   2.086
17202W        W17683   5.135  14.694   0.290
17203W        W17684   6.674  17.293   0.233
17204W        W17685   4.443  15.386   3.119
17205W        W17686   4.877  17.380   2.981
17206W        W17687   7.003  15.371   2.779
17207W        W17688   6.453  16.649   2.114
17208W        W17689   4.703  15.065   2.781
17209W        W17690   5.172  16.134   3.538
17210W        W17691   4.675  17.313   0.732
17211W        W17692   6.430  16.811   0.996
17212W        W17693   4.198  15.437   2.720
17213W        W17694   5.527  17.499   1.184
17214W        W17695   7.277  16.059   1.365
17215W        W17696   5.499  14.692   3.084
17216W        W17697   6.279  17.397   2.163
17217W        W17698   6.582  17.741   1.871
17218W        W17699   5.801  17.543   0.299
17219W        W17700   3.811  17.435   3.141
17220W        W17701   4.554  15.427   2.379
17221W        W17702   4.524  14.775   1.489
17222W        W17703   6.145  15.617   2.181
17223W        W17704   4.943  16.788   0.381
17224W        W17705   6.941  16.730   1.880
17225W        W17706   4.268  17.488   3.303
17226W        W17707   4.754  15.190   1.545
17227W        W17708   4.523  16.683   1.635
17228W        W17709   6.062  16.378   2.350
17229W        W17710   3.911  16.176   0.265
17230W        W17711   6.882  15.158   0.581
17231W        W17712   5.021  14.677   2.984
17232W        W17713   6.727  17.479   1.442
17233W        W17714   6.756  16.035   1.347
17234W        W17715   4.873  15.708   1.563
17235W        W17716   5.118  15.970   2.887
17236W        W17717   6.229  17.123   2.750
17237W        W17718   4.879  15.577   2.862
17238W        W17719   4.287  17.363   0.242
17239W        W17720   6.804  17.121   1.052
17240W        W17721   4.408  15.913   2.938
17241W        W17722   7.181  15.843   0.419
17242W        W17723   4.926  16.900   0.890
17243W        W17724   6.025  16.282   2.971
17244W        W17725   5.916  15.910   2.515
17245W        W17726   4.476  16.282   2.544
17246W        W17727   4.141  14.954   2.954
17247W        W17728   4.480  15.977   2.007
17248W        W17729   4.849  15.791   0.129
17249W        W17730   3.652  17.550   2.674
17250W        W17731   5.237  16.259   2.117
17251W        W17732   5.060  15.284   0.222
17252W        W17733   4.195  16.100   1.003
17253W        W17734   6.761  16.178   0.548
17254W        W17735   6.856  15.094   3.234
17255W        W17736   6.292  17.303   1.197
17256W        W17737   3.890  16.227   3.374
17257W        W17738   6.856  14.691   0.670
17258W        W17739   6.376  17.166   0.681
17259W        W17740   5.278  16.224   0.766
17260W        W17741   6.465  15.028   0.289
17261W        W17742   6.530  15.635   2.475
17262W        W17743   4.239  16.228   1.682
17263W        W17744   4.533  17.167   1.331
17264W        W17745   6.296  15.787   1.296
17265W        W17746   5.319  15.166   1.992
17266W        W17747   7.281  17.077   2.503
17267W        W17748   7.199  15.064   2.064
17268W        W17749   4.247  17.081   0.976
17269W        W17750   4.162  14.698   3.529
17270W        W17751   5.281  17.551   3.631
17271W        W17752   7.036  16.519   1.421
17272W        W17753   6.390  16.696   0.301
17273W        W17754   6.542  16.939   3.550
17274W        W17755   5.357  14.649   0.830
17275W        W17756   6.070  15.518   1.689
17276W        W17757   3.756  17.105   2.021
17277W        W17758   5.009  15.067   0.662
17278W        W17759   4.813  16.551   3.511
17279W        W17760   5.807  15.532   1.225
17280W        W17761   6.012  16.942   2.347
17281W        W17762   4.166  17.547   2.782
17282W        W17763   4.757  17.530   3.505
17283W        W17764   4.608  15.327   0.519
17284W        W17765   6.125  15.469   0.844
17285W        W17766   6.083  17.577   3.081
17286W        W17767   4.768  16.169   1.680
17287W        W17768   4.031  16.656   3.142
17288W        W17769   6.026  16.918   1.830
17289W        W17770   4.462  16.567   1.072
17290W        W17771   4.833  17.574   2.467
17291W        W17772   5.211  14.993   1.508
17292W        W17773   3.822  16.977   0.438
17293W        W17774   5.341  15.928   0.308
17294W        W17775   3.987  16.477   1.327
17295W        W17776   5.277  15.119   2.791
17296W        W17777   6.949  14.828   0.218
17297W        W17778   7.042  16.574   3.317
17298W        W17779   7.254  16.925   2.991
17299W        W17780   6.662  17.723   3.602
17300W        W17781   7.260  16.801   0.954
17301W        W17782   5.790  16.068   1.467
17302W        W17783   5.557  14.680   1.357
17303W        W17784   4.616  17.664   1.194
17304W        W17785   5.115  15.405   2.419
17305W        W17786   4.815  14.774   1.888
17306W        W17787   3.878  17.596   0.436
17307W        W17788   5.694  16.960   1.154
17308W        W17789   4.046  16.578   0.729
17309W        W17790   3.931  15.121   1.728
17310W        W17791   5.479  17.086   1.785
17311W        W17792   6.395  16.146   2.732
17312W        W17793   6.272  15.532   0.304
17313W        W17794   5.450  17.688   1.783
17314W        W17795   6.141  15.713   3.500
17315W        W17796   4.124  15.243   3.499
17316W        W17797   3.855  15.843   0.832
17317W        W17798   4.546  15.832   0.557
17318W        W17799   6.309  16.159   3.374
17319W        W17800   4.652  16.440   2.083
17320W        W17801   6.126  14.726   1.203
17321W        W17802   6.471  17.619   2.643
17322W        W17803   6.074  16.748   1.348
17323W        W17804   5.536  14.973   0.419
17324W        W17805   7.217  14.601   1.141
17325W        W17806   4.905  16.236   0.304
17326W        W17807   7.071  15.573   1.294
17327W        W17808   5.763  16.743   0.171
17328W        W17809   6.699  16.943   2.919
17329W        W17810   6.353  17.644   0.386
17330W        W17811   4.968  15.319   3.292
17331W        W17812   4.788  15.903   2.533
17332W        W17813   6.880  17.398   2.810
17333W        W17814   5.980  15.348   3.187
17334W        W17815   3.824  15.819   2.964
17335W        W17816   5.584  16.296   2.690
17336W        W17817   3.941  17.054   1.347
17337W        W17818   6.405  16.637   2.587
17338W        W17819   6.073  15.756   2.951
17339W        W17820   5.352  17.530   2.679
17340W        W17821   6.642  17.056   2.367
17341W        W17822   5.692  17.128   3.504
17342W        W17823   4.297  17.081   1.843
17343W        W17824   6.643  16.840   1.488
17344W        W17825   4.262  17.635   2.109
17345W        W17826   5.283  15.687   3.319
17346W        W17827   5.042  17.108   3.468
17347W        W17828   5.168  17.346   0.845
17348W        W17829   4.389  16.086   0.104
17349W        W17830   4.104  17.065   6.526
17350W        W17831   6.809  16.795   4.296
17351W        W17832   4.940  16.023   4.832
17352W        W17833   4.455  15.871   4.996
17353W        W17834   5.446  16.686   4.430
17354W        W17835   3.770  15.339   6.748
17355W        W17836   4.532  14.619   6.550
17356W        W17837   6.226  15.007   5.437
17357W        W17838   5.875  15.878   4.007
17358W        W17839   6.445  15.312   7.098
17359W        W17840   3.811  15.104   6.223
17360W        W17841   3.910  17.723   7.244
17361W        W17842   5.432  17.113   3.976
17362W        W17843   3.864  15.896   5.669
17363W        W17844   4.757  15.787   6.906
17364W        W17845   7.216  15.646   5.405
17365W        W17846   6.980  16.689   6.264
17366W        W17847   5.288  16.022   5.291
17367W        W17848   5.834  17.361   5.660
17368W        W17849   4.334  16.795   5.892
17369W        W17850   3.693  16.323   5.463
17370W        W17851   4.729  16.295   6.655
17371W        W17852   7.000  16.078   6.909
17372W        W17853   4.616  17.522   5.354
17373W        W17854   5.737  17.211   6.488
17374W        W17855   4.957  15.851   5.713
17375W        W17856   5.249  16.635   5.356
17376W        W17857   6.246  17.408   7.204
17377W        W17858   5.325  16.728   7.214
17378W        W17859   5.306  16.444   6.692
17379W        W17860   3.715  15.835   7.214
17380W        W17861   6.547  17.370   6.813
17381W        W17862   4.128  14.952   4.811
17382W        W17863   4.655  17.210   5.810
17383W        W17864   7.118  16.993   5.100
17384W        W17865   6.531  15.393   5.667
17385W        W17866   6.816  15.346   3.762
17386W        W17867   7.281  16.147   6.068
17387W        W17868   7.022  17.320   4.259
17388W        W17869   4.341  14.906   6.115
17389W        W17870   6.964  15.924   6.390
17390W        W17871   6.369  16.346   4.849
17391W        W17872   6.335  16.034   3.876
17392W        W17873   5.543  17.178   6.016
17393W        W17874   5.349  15.508   5.215
17394W        W17875   5.949  17.595   6.209
17395W        W17876   6.820  16.386   4.631
17396W        W17877   5.722  15.044   4.647
17397W        W17878   4.379  17.738   4.330
17398W        W17879   3.750  15.237   4.929
17399W        W17880   6.536  15.844   5.403
17400W        W17881   3.994  17.461   5.318
17401W        W17882   6.727  15.837   3.652
17402W        W17883   3.750  17.595   5.816
17403W        W17884   4.541  17.167   6.296
17404W        W17885   4.914  16.527   4.915
17405W        W17886   4.936  14.932   6.008
17406W        W17887   7.165  14.694   5.305
17407W        W17888   4.384  16.566   3.773
17408W        W17889   4.039  15.599   3.952
17409W        W17890   4.101  17.555   4.746
17410W        W17891   5.232  17.038   4.994
17411W        W17892   5.490  15.539   4.392
17412W        W17893   6.550  15.790   6.762
17413W        W17894   7.263  17.446   4.896
17414W        W17895   5.890  16.738   6.380
17415W        W17896   3.656  16.289   4.586
17416W        W17897   4.767  16.704   6.159
17417W        W17898   5.971  15.968   4.537
17418W        W17899   5.848  16.458   4.641
17419W        W17900   4.191  15.878   6.115
17420W        W17901   4.176  15.754   7.037
17421W        W17902   4.066  14.671   5.196
17422W        W17903   5.834  15.018   5.757
17423W        W17904   5.482  15.203   6.920
17424W        W17905   5.837  15.352   4.098
17425W        W17906   7.020  17.745   6.852
17426W        W17907   5.987  14.826   6.891
17427W        W17908   7.006  17.127   7.013
17428W        W17909   6.436  15.294   6.609
17429W        W17910   6.236  15.232   4.879
17430W        W17911   6.629  16.366   7.283
17431W        W17912   5.027  15.659   4.255
17432W        W17913   4.596  14.943   6.919
17433W        W17914   6.648  15.427   4.600
17434W        W17915   7.015  15.909   4.545
17435W        W17916   4.684  14.662   4.251
17436W        W17917   7.005  15.196   5.286
17437W        W17918   7.155  17.445   3.731
17438W        W17919   4.062  16.648   5.433
17439W        W17920   5.979  15.235   3.663
17440W        W17921   7.113  17.567   5.383
17441W        W17922   7.152  14.761   6.133
17442W        W17923   5.597  15.973   6.687
17443W        W17924   5.690  17.312   4.390
17444W        W17925   6.090  16.606   7.130
17445W        W17926   5.764  14.583   5.439
17446W        W17927   4.376  15.486   5.502
17447W        W17928   3.930  16.686   6.276
17448W        W17929   6.983  15.476   5.854
17449W        W17930   6.963  16.882   3.826
17450W        W17931   5.398  16.365   4.887
17451W        W17932   7.250  14.876   6.628
17452W        W17933   5.399  16.711   6.222
17453W        W17934   5.616  15.597   5.667
17454W        W17935   6.468  15.895   4.505
17455W        W17936   6.755  15.628   4.147
17456W        W17937   6.564  17.668   4.536
17457W        W17938   6.398  17.271   5.332
17458W        W17939   6.294  16.350   4.310
17459W        W17940   5.727  16.560   5.296
17460W        W17941   6.608  16.348   5.363
17461W        W17942   3.983  15.363   5.787
17462W        W17943   6.761  16.415   6.614
17463W        W17944   5.042  17.477   5.162
17464W        W17945   6.043  15.340   6.250
17465W        W17946   6.947  15.002   4.777
17466W        W17947   6.738  16.321   6.078
17467W        W17948   3.721  15.642   6.116
17468W        W17949   6.581  15.437   5.134
17469W        W17950   6.992  15.588   6.911
17470W        W17951   5.877  17.287   5.129
17471W        W17952   4.248  15.058   4.000
17472W        W17953   5.352  14.712   5.810
17473W        W17954   4.754  16.298   4.409
17474W        W17955   5.238  15.285   4.712
17475W        W17956   6.594  14.882   5.140
17476W        W17957   5.122  16.849   5.769
17477W        W17958   6.892  17.572   5.895
17478W        W17959   4.586  15.075   4.664
17479W        W17960   5.108  17.372   5.624
17480W        W17961   4.591  15.303   3.689
17481W        W17962   5.392  15.912   6.083
17482W        W17963   6.240  14.778   5.953
17483W        W17964   3.660  16.621   5.838
17484W        W17965   5.364  16.439   3.996
17485W        W17966   4.632  14.754   3.766
17486W        W17967   5.370  15.835   4.817
17487W        W17968   6.340  14.811   6.516
17488W        W17969   4.928  16.823   6.625
17489W        W17970   5.732  16.605   6.842
17490W        W17971   6.349  16.635   6.735
17491W        W17972   5.633  14.775   7.240
17492W        W17973   4.855  15.391   5.633
17493W        W17974   4.281  15.347   5.031
17494W        W17975   5.399  17.389   6.832
17495W        W17976   6.114  16.259   5.412
17496W        W17977   6.394  16.058   5.811
17497W        W17978   5.599  16.732   5.745
17498W        W17979   6.069  17.106   3.877
17499W        W17980   5.741  15.127   5.205
17500W        W17981   7.220  15.405   4.473
17501W        W17982   4.131  17.220   6.036
17502W        W17983   5.597  15.336   6.074
17503W        W17984   4.960  17.359   3.923
17504W        W17985   5.840  16.394   4.123
17505W        W17986   4.683  15.585   4.640
17506W        W17987   5.515  15.495   3.692
17507W        W17988   6.099  17.060   6.870
17508W        W17989   6.452  14.966   4.487
17509W        W17990   3.782  14.814   3.935
17510W        W17991   5.068  17.133   6.225
17511W        W17992   4.867  17.049   5.317
17512W        W17993   4.609  17.001   3.715
17513W        W17994   3.850  17.242   4.483
17514W        W17995   4.354  16.312   6.925
17515W        W17996   5.058  14.872   7.111
17516W        W17997   5.767  15.014   6.467
17517W        W17998   4.962  14.782   4.748
17518W        W17999   6.021  14.859   4.253
17519W        W18000   3.966  14.791   5.830
17520W        W18001   4.014  15.754   5.200
17521W        W18002   6.703  14.862   5.606
17522W        W18003   4.125  15.360   4.420
17523W        W18004   6.696  15.048   6.036
17524W        W18005   7.092  16.251   3.721
17525W        W18006   4.384  15.009   5.540
17526W        W18007   5.498  15.581   6.480
17527W        W18008   3.646  15.271   3.958
17528W        W18009   4.432  16.660   6.519
17529W        W18010   5.790  16.058   5.698
17530W        W18011   3.803  16.644   3.691
17531W        W18012   4.538  17.055   6.817
17532W        W18013   4.059  16.222   6.448
17533W        W18014   5.050  16.327   6.242
17534W        W18015   6.818  14.686   6.504
17535W        W18016   7.216  16.296   6.495
17536W        W18017   7.204  16.496   4.181
17537W        W18018   6.067  16.828   4.280
17538W        W18019   5.718  16.118   7.117
17539W        W18020   4.048  17.085   7.157
17540W        W18021   7.254  15.007   7.109
17541W        W18022   6.972  15.935   5.730
17542W        W18023   5.135  14.694   3.934
17543W        W18024   6.674  17.293   3.877
17544W        W18025   4.443  15.386   6.763
17545W        W18026   4.877  17.380   6.625
17546W        W18027   7.003  15.371   6.423
17547W        W18028   6.453  16.649   5.758
17548W        W18029   4.703  15.065   6.425
17549W        W18030   5.172  16.134   7.182
17550W        W18031   4.675  17.313   4.376
17551W        W18032   6.430  16.811   4.640
17552W        W18033   4.198  15.437   6.364
17553W        W18034   5.527  17.499   4.828
17554W        W18035   7.277  16.059   5.009
17555W        W18036   5.499  14.692   6.728
17556W        W18037   6.279  17.397   5.807
17557W        W18038   6.582  17.741   5.515
17558W        W18039   5.801  17.543   3.943
17559W        W18040   3.811  17.435   6.785
17560W        W18041   4.554  15.427   6.023
17561W        W18042   4.524  14.775   5.133
17562W        W18043   6.145  15.617   5.825
17563W        W18044   4.943  16.788   4.025
17564W        W18045   6.941  16.730   5.524
17565W        W18046   4.268  17.488   6.947
17566W        W18047   4.754  15.190   5.189
17567W        W18048   4.523  16.683   5.279
17568W        W18049   6.062  16.378   5.994
17569W        W18050   3.911  16.176   3.909
17570W        W18051   6.882  15.158   4.225
17571W        W18052   5.021  14.677   6.628
17572W        W18053   6.727  17.479   5.086
17573W        W18054   6.756  16.035   4.991
17574W        W18055   4.873  15.708   5.207
17575W        W18056   5.118  15.970   6.531
17576W        W18057   6.229  17.123   6.394
17577W        W18058   4.879  15.577   6.506
17578W        W18059   6.804  17.121   4.696
17579W        W18060   4.408  15.913   6.582
17580W        W18061   7.181  15.843   4.063
17581W        W18062   4.926  16.900   4.534
17582W        W18063   6.025  16.282   6.615
17583W        W18064   5.916  15.910   6.159
17584W        W18065   6.477  14.804   7.011
17585W        W18066   4.141  14.954   6.598
17586W        W18067   4.480  15.977   5.651
17587W        W18068   4.849  15.791   3.773
17588W        W18069   3.652  17.550   6.318
17589W        W18070   5.237  16.259   5.761
17590W        W18071   5.060  15.284   3.866
17591W        W18072   4.195  16.100   4.647
17592W        W18073   6.761  16.178   4.192
17593W        W18074   6.856  15.094   6.878
17594W        W18075   6.292  17.303   4.841
17595W        W18076   3.890  16.227   7.018
17596W        W18077   6.856  14.691   4.314
17597W        W18078   6.376  17.166   4.325
17598W        W18079   5.278  16.224   4.410
17599W        W18080   6.465  15.028   3.933
17600W        W18081   6.530  15.635   6.119
17601W        W18082   4.533  17.167   4.975
17602W        W18083   6.296  15.787   4.940
17603W        W18084   5.319  15.166   5.636
17604W        W18085   7.281  17.077   6.147
17605W        W18086   7.199  15.064   5.708
17606W        W18087   4.247  17.081   4.620
17607W        W18088   4.162  14.698   7.173
17608W        W18089   5.281  17.551   7.275
17609W        W18090   7.036  16.519   5.065
17610W        W18091   6.390  16.696   3.945
17611W        W18092   6.542  16.939   7.194
17612W        W18093   5.357  14.649   4.474
17613W        W18094   6.070  15.518   5.333
17614W        W18095   5.009  15.067   4.306
17615W        W18096   4.813  16.551   7.155
17616W        W18097   5.807  15.532   4.869
17617W        W18098   6.012  16.942   5.991
17618W        W18099   4.166  17.547   6.426
17619W        W18100   4.757  17.530   7.149
17620W        W18101   4.608  15.327   4.163
17621W        W18102   6.125  15.469   4.488
17622W        W18103   6.083  17.577   6.725
17623W        W18104   4.768  16.169   5.324
17624W        W18105   4.031  16.656   6.786
17625W        W18106   6.026  16.918   5.474
17626W        W18107   4.462  16.567   4.716
17627W        W18108   4.833  17.574   6.111
17628W        W18109   5.211  14.993   5.152
17629W        W18110   3.822  16.977   4.082
17630W        W18111   3.987  16.477   4.971
17631W        W18112   5.277  15.119   6.435
17632W        W18113   6.949  14.828   3.862
17633W        W18114   7.042  16.574   6.961
17634W        W18115   7.254  16.925   6.635
17635W        W18116   6.662  17.723   7.246
17636W        W18117   7.260  16.801   4.598
17637W        W18118   5.790  16.068   5.111
17638W        W18119   5.557  14.680   5.001
17639W        W18120   4.616  17.664   4.838
17640W        W18121   5.115  15.405   6.063
17641W        W18122   4.815  14.774   5.532
17642W        W18123   3.878  17.596   4.080
17643W        W18124   5.694  16.960   4.798
17644W        W18125   4.046  16.578   4.373
17645W        W18126   3.931  15.121   5.372
17646W        W18127   5.479  17.086   5.429
17647W        W18128   3.731  14.940   4.449
17648W        W18129   6.395  16.146   6.376
17649W        W18130   6.272  15.532   3.948
17650W        W18131   6.789  17.204   5.596
17651W        W18132   5.450  17.688   5.427
17652W        W18133   6.144  14.695   3.768
17653W        W18134   6.141  15.713   7.144
17654W        W18135   3.855  15.843   4.476
17655W        W18136   4.546  15.832   4.201
17656W        W18137   6.309  16.159   7.018
17657W        W18138   4.652  16.440   5.727
17658W        W18139   6.126  14.726   4.847
17659W        W18140   6.471  17.619   6.287
17660W        W18141   6.074  16.748   4.992
17661W        W18142   5.536  14.973   4.063
17662W        W18143   7.217  14.601   4.785
17663W        W18144   4.905  16.236   3.948
17664W        W18145   7.071  15.573   4.938
17665W        W18146   5.763  16.743   3.815
17666W        W18147   6.699  16.943   6.563
17667W        W18148   6.353  17.644   4.030
17668W        W18149   4.968  15.319   6.936
17669W        W18150   4.788  15.903   6.177
17670W        W18151   6.880  17.398   6.454
17671W        W18152   5.980  15.348   6.831
17672W        W18153   3.824  15.819   6.608
17673W        W18154   5.584  16.296   6.334
17674W        W18155   3.941  17.054   4.991
17675W        W18156   4.088  16.351   5.881
17676W        W18157   6.405  16.637   6.231
17677W        W18158   6.073  15.756   6.595
17678W        W18159   5.352  17.530   6.323
17679W        W18160   6.642  17.056   6.011
17680W        W18161   5.692  17.128   7.148
17681W        W18162   4.297  17.081   5.487
17682W        W18163   6.643  16.840   5.132
17683W        W18164   4.262  17.635   5.753
17684W        W18165   5.283  15.687   6.963
17685W        W18166   5.042  17.108   7.112
17686W        W18167   5.168  17.346   4.489
17687W        W18168   4.389  16.086   3.748
17688W        W18169   4.104  17.065  10.171
17689W        W18170   6.809  16.795   7.941
17690W        W18171   4.940  16.023   8.477
17691W        W18172   4.455  15.871   8.641
17692W        W18173   5.446  16.686   8.075
17693W        W18174   3.770  15.339  10.393
17694W        W18175   4.532  14.619  10.195
17695W        W18176   6.226  15.007   9.082
17696W        W18177   5.875  15.878   7.652
17697W        W18178   6.445  15.312  10.743
17698W        W18179   3.811  15.104   9.868
17699W        W18180   3.910  17.723  10.889
17700W        W18181   5.432  17.113   7.621
17701W        W18182   3.864  15.896   9.314
17702W        W18183   4.757  15.787  10.551
17703W        W18184   7.216  15.646   9.050
17704W        W18185   6.980  16.689   9.909
17705W        W18186   5.288  16.022   8.936
17706W        W18187   5.834  17.361   9.305
17707W        W18188   4.334  16.795   9.537
17708W        W18189   3.693  16.323   9.108
17709W        W18190   4.729  16.295  10.300
17710W        W18191   7.000  16.078  10.554
17711W        W18192   4.616  17.522   8.999
17712W        W18193   5.737  17.211  10.133
17713W        W18194   4.957  15.851   9.358
17714W        W18195   5.249  16.635   9.001
17715W        W18196   6.246  17.408  10.849
17716W        W18197   5.325  16.728  10.859
17717W        W18198   5.306  16.444  10.337
17718W        W18199   3.715  15.835  10.859
17719W        W18200   6.547  17.370  10.458
17720W        W18201   4.128  14.952   8.456
17721W        W18202   4.655  17.210   9.455
17722W        W18203   7.118  16.993   8.745
17723W        W18204   6.531  15.393   9.312
17724W        W18205   6.816  15.346   7.407
17725W        W18206   7.281  16.147   9.713
17726W        W18207   7.022  17.320   7.904
17727W        W18208   4.341  14.906   9.760
17728W        W18209   6.964  15.924  10.035
17729W        W18210   6.369  16.346   8.494
17730W        W18211   6.335  16.034   7.521
17731W        W18212   5.543  17.178   9.661
17732W        W18213   5.349  15.508   8.860
17733W        W18214   5.949  17.595   9.854
17734W        W18215   6.820  16.386   8.276
17735W        W18216   5.722  15.044   8.292
17736W        W18217   4.379  17.738   7.975
17737W        W18218   3.750  15.237   8.574
17738W        W18219   6.536  15.844   9.048
17739W        W18220   3.994  17.461   8.963
17740W        W18221   6.727  15.837   7.297
17741W        W18222   3.750  17.595   9.461
17742W        W18223   4.541  17.167   9.941
17743W        W18224   4.914  16.527   8.560
17744W        W18225   4.936  14.932   9.653
17745W        W18226   7.165  14.694   8.950
17746W        W18227   4.384  16.566   7.418
17747W        W18228   4.039  15.599   7.597
17748W        W18229   4.101  17.555   8.391
17749W        W18230   5.232  17.038   8.639
17750W        W18231   5.490  15.539   8.037
17751W        W18232   6.550  15.790  10.407
17752W        W18233   7.263  17.446   8.541
17753W        W18234   3.656  16.289   8.231
17754W        W18235   4.767  16.704   9.804
17755W        W18236   5.971  15.968   8.182
17756W        W18237   5.848  16.458   8.286
17757W        W18238   4.191  15.878   9.760
17758W        W18239   4.176  15.754  10.682
17759W        W18240   4.066  14.671   8.841
17760W        W18241   5.834  15.018   9.402
17761W        W18242   5.482  15.203  10.565
17762W        W18243   5.837  15.352   7.743
17763W        W18244   7.020  17.745  10.497
17764W        W18245   5.987  14.826  10.536
17765W        W18246   7.006  17.127  10.658
17766W        W18247   6.436  15.294  10.254
17767W        W18248   6.236  15.232   8.524
17768W        W18249   6.629  16.366  10.928
17769W        W18250   5.027  15.659   7.900
17770W        W18251   4.596  14.943  10.564
17771W        W18252   6.648  15.427   8.245
17772W        W18253   7.015  15.909   8.190
17773W        W18254   4.684  14.662   7.896
17774W        W18255   7.005  15.196   8.931
17775W        W18256   7.155  17.445   7.376
17776W        W18257   4.062  16.648   9.078
17777W        W18258   5.979  15.235   7.308
17778W        W18259   7.113  17.567   9.028
17779W        W18260   7.152  14.761   9.778
17780W        W18261   5.597  15.973  10.332
17781W        W18262   5.690  17.312   8.035
17782W        W18263   6.090  16.606  10.775
17783W        W18264   5.764  14.583   9.084
17784W        W18265   4.376  15.486   9.147
17785W        W18266   3.930  16.686   9.921
17786W        W18267   6.983  15.476   9.499
17787W        W18268   6.963  16.882   7.471
17788W        W18269   5.398  16.365   8.532
17789W        W18270   7.250  14.876  10.273
17790W        W18271   5.399  16.711   9.867
17791W        W18272   5.616  15.597   9.312
17792W        W18273   6.468  15.895   8.150
17793W        W18274   6.755  15.628   7.792
17794W        W18275   6.564  17.668   8.181
17795W        W18276   6.398  17.271   8.977
17796W        W18277   6.294  16.350   7.955
17797W        W18278   5.727  16.560   8.941
17798W        W18279   6.608  16.348   9.008
17799W        W18280   3.983  15.363   9.432
17800W        W18281   6.761  16.415  10.259
17801W        W18282   5.042  17.477   8.807
17802W        W18283   6.043  15.340   9.895
17803W        W18284   6.947  15.002   8.422
17804W        W18285   6.738  16.321   9.723
17805W        W18286   3.721  15.642   9.761
17806W        W18287   6.581  15.437   8.779
17807W        W18288   6.992  15.588  10.556
17808W        W18289   5.877  17.287   8.774
17809W        W18290   4.248  15.058   7.645
17810W        W18291   4.754  16.298   8.054
17811W        W18292   5.408  16.927  10.367
17812W        W18293   5.238  15.285   8.357
17813W        W18294   6.594  14.882   8.785
17814W        W18295   5.122  16.849   9.414
17815W        W18296   6.892  17.572   9.540
17816W        W18297   4.586  15.075   8.309
17817W        W18298   5.108  17.372   9.269
17818W        W18299   4.591  15.303   7.334
17819W        W18300   5.392  15.912   9.728
17820W        W18301   6.240  14.778   9.598
17821W        W18302   3.660  16.621   9.483
17822W        W18303   5.364  16.439   7.641
17823W        W18304   4.632  14.754   7.411
17824W        W18305   5.370  15.835   8.462
17825W        W18306   6.340  14.811  10.161
17826W        W18307   4.928  16.823  10.270
17827W        W18308   5.732  16.605  10.487
17828W        W18309   6.349  16.635  10.380
17829W        W18310   5.633  14.775  10.885
17830W        W18311   4.855  15.391   9.278
17831W        W18312   4.281  15.347   8.676
17832W        W18313   5.399  17.389  10.477
17833W        W18314   4.434  16.874   7.836
17834W        W18315   6.114  16.259   9.057
17835W        W18316   6.394  16.058   9.456
17836W        W18317   5.599  16.732   9.390
17837W        W18318   6.069  17.106   7.522
17838W        W18319   5.741  15.127   8.850
17839W        W18320   7.220  15.405   8.118
17840W        W18321   4.131  17.220   9.681
17841W        W18322   5.597  15.336   9.719
17842W        W18323   4.960  17.359   7.568
17843W        W18324   5.840  16.394   7.768
17844W        W18325   4.683  15.585   8.285
17845W        W18326   5.515  15.495   7.337
17846W        W18327   6.099  17.060  10.515
17847W        W18328   6.452  14.966   8.132
17848W        W18329   3.782  14.814   7.580
17849W        W18330   5.068  17.133   9.870
17850W        W18331   4.867  17.049   8.962
17851W        W18332   4.609  17.001   7.360
17852W        W18333   3.850  17.242   8.128
17853W        W18334   4.354  16.312  10.570
17854W        W18335   5.058  14.872  10.756
17855W        W18336   5.767  15.014  10.112
17856W        W18337   4.962  14.782   8.393
17857W        W18338   6.021  14.859   7.898
17858W        W18339   3.966  14.791   9.475
17859W        W18340   4.014  15.754   8.845
17860W        W18341   6.703  14.862   9.251
17861W        W18342   4.125  15.360   8.065
17862W        W18343   6.696  15.048   9.681
17863W        W18344   7.092  16.251   7.366
17864W        W18345   4.384  15.009   9.185
17865W        W18346   5.498  15.581  10.125
17866W        W18347   3.646  15.271   7.603
17867W        W18348   4.432  16.660  10.164
17868W        W18349   5.790  16.058   9.343
17869W        W18350   3.803  16.644   7.336
17870W        W18351   4.538  17.055  10.462
17871W        W18352   4.059  16.222  10.093
17872W        W18353   5.050  16.327   9.887
17873W        W18354   6.818  14.686  10.149
17874W        W18355   7.216  16.296  10.140
17875W        W18356   7.204  16.496   7.826
17876W        W18357   6.067  16.828   7.925
17877W        W18358   5.718  16.118  10.762
17878W        W18359   4.048  17.085  10.802
17879W        W18360   7.254  15.007  10.754
17880W        W18361   6.972  15.935   9.375
17881W        W18362   5.135  14.694   7.579
17882W        W18363   6.674  17.293   7.522
17883W        W18364   4.443  15.386  10.408
17884W        W18365   4.877  17.380  10.270
17885W        W18366   7.003  15.371  10.068
17886W        W18367   6.453  16.649   9.403
17887W        W18368   4.703  15.065  10.070
17888W        W18369   5.172  16.134  10.827
17889W        W18370   4.675  17.313   8.021
17890W        W18371   6.430  16.811   8.285
17891W        W18372   4.198  15.437  10.009
17892W        W18373   5.527  17.499   8.473
17893W        W18374   7.277  16.059   8.654
17894W        W18375   5.499  14.692  10.373
17895W        W18376   6.279  17.397   9.452
17896W        W18377   6.582  17.741   9.160
17897W        W18378   5.801  17.543   7.588
17898W        W18379   3.811  17.435  10.430
17899W        W18380   4.554  15.427   9.668
17900W        W18381   4.524  14.775   8.778
17901W        W18382   6.145  15.617   9.470
17902W        W18383   4.943  16.788   7.670
17903W        W18384   6.941  16.730   9.169
17904W        W18385   4.268  17.488  10.592
17905W        W18386   4.754  15.190   8.834
17906W        W18387   4.523  16.683   8.924
17907W        W18388   6.062  16.378   9.639
17908W        W18389   3.911  16.176   7.554
17909W        W18390   6.882  15.158   7.870
17910W        W18391   5.021  14.677  10.273
17911W        W18392   6.727  17.479   8.731
17912W        W18393   6.756  16.035   8.636
17913W        W18394   4.873  15.708   8.852
17914W        W18395   5.118  15.970  10.176
17915W        W18396   6.229  17.123  10.039
17916W        W18397   4.879  15.577  10.151
17917W        W18398   4.287  17.363   7.531
17918W        W18399   6.804  17.121   8.341
17919W        W18400   7.181  15.843   7.708
17920W        W18401   6.025  16.282  10.260
17921W        W18402   5.916  15.910   9.804
17922W        W18403   4.476  16.282   9.833
17923W        W18404   6.477  14.804  10.656
17924W        W18405   4.141  14.954  10.243
17925W        W18406   4.480  15.977   9.296
17926W        W18407   4.849  15.791   7.418
17927W        W18408   3.652  17.550   9.963
17928W        W18409   5.237  16.259   9.406
17929W        W18410   5.060  15.284   7.511
17930W        W18411   4.195  16.100   8.292
17931W        W18412   6.761  16.178   7.837
17932W        W18413   6.856  15.094  10.523
17933W        W18414   6.292  17.303   8.486
17934W        W18415   3.890  16.227  10.663
17935W        W18416   6.856  14.691   7.959
17936W        W18417   6.376  17.166   7.970
17937W        W18418   5.278  16.224   8.055
17938W        W18419   6.465  15.028   7.578
17939W        W18420   6.530  15.635   9.764
17940W        W18421   4.239  16.228   8.971
17941W        W18422   4.533  17.167   8.620
17942W        W18423   6.296  15.787   8.585
17943W        W18424   5.319  15.166   9.281
17944W        W18425   7.281  17.077   9.792
17945W        W18426   7.199  15.064   9.353
17946W        W18427   4.247  17.081   8.265
17947W        W18428   4.162  14.698  10.818
17948W        W18429   5.281  17.551  10.920
17949W        W18430   7.036  16.519   8.710
17950W        W18431   6.390  16.696   7.590
17951W        W18432   6.542  16.939  10.839
17952W        W18433   5.357  14.649   8.119
17953W        W18434   6.070  15.518   8.978
17954W        W18435   3.756  17.105   9.310
17955W        W18436   5.009  15.067   7.951
17956W        W18437   4.813  16.551  10.800
17957W        W18438   5.807  15.532   8.514
17958W        W18439   6.012  16.942   9.636
17959W        W18440   4.166  17.547  10.071
17960W        W18441   4.757  17.530  10.794
17961W        W18442   4.608  15.327   7.808
17962W        W18443   6.125  15.469   8.133
17963W        W18444   6.083  17.577  10.370
17964W        W18445   4.768  16.169   8.969
17965W        W18446   4.031  16.656  10.431
17966W        W18447   6.026  16.918   9.119
17967W        W18448   4.462  16.567   8.361
17968W        W18449   4.833  17.574   9.756
17969W        W18450   5.211  14.993   8.797
17970W        W18451   3.822  16.977   7.727
17971W        W18452   5.341  15.928   7.597
17972W        W18453   3.987  16.477   8.616
17973W        W18454   5.277  15.119  10.080
17974W        W18455   6.949  14.828   7.507
17975W        W18456   7.042  16.574  10.606
17976W        W18457   7.254  16.925  10.280
17977W        W18458   6.662  17.723  10.891
17978W        W18459   5.790  16.068   8.756
17979W        W18460   5.557  14.680   8.646
17980W        W18461   4.616  17.664   8.483
17981W        W18462   5.115  15.405   9.708
17982W        W18463   4.815  14.774   9.177
17983W        W18464   3.878  17.596   7.725
17984W        W18465   5.694  16.960   8.443
17985W        W18466   4.046  16.578   8.018
17986W        W18467   3.931  15.121   9.017
17987W        W18468   5.479  17.086   9.074
17988W        W18469   3.731  14.940   8.094
17989W        W18470   6.395  16.146  10.021
17990W        W18471   6.272  15.532   7.593
17991W        W18472   6.789  17.204   9.241
17992W        W18473   5.450  17.688   9.072
17993W        W18474   6.144  14.695   7.413
17994W        W18475   6.141  15.713  10.789
17995W        W18476   4.124  15.243  10.788
17996W        W18477   3.855  15.843   8.121
17997W        W18478   4.546  15.832   7.846
17998W        W18479   6.309  16.159  10.663
17999W        W18480   4.652  16.440   9.372
18000W        W18481   6.126  14.726   8.492
18001W        W18482   6.471  17.619   9.932
18002W        W18483   6.074  16.748   8.637
18003W        W18484   5.536  14.973   7.708
18004W        W18485   7.217  14.601   8.430
18005W        W18486   4.905  16.236   7.593
18006W        W18487   7.071  15.573   8.583
18007W        W18488   5.763  16.743   7.460
18008W        W18489   6.699  16.943  10.208
18009W        W18490   6.353  17.644   7.675
18010W        W18491   4.968  15.319  10.581
18011W        W18492   4.788  15.903   9.822
18012W        W18493   6.880  17.398  10.099
18013W        W18494   5.980  15.348  10.476
18014W        W18495   3.824  15.819  10.253
18015W        W18496   5.584  16.296   9.979
18016W        W18497   3.941  17.054   8.636
18017W        W18498   4.088  16.351   9.526
18018W        W18499   6.405  16.637   9.876
18019W        W18500   6.073  15.756  10.240
18020W        W18501   5.352  17.530   9.968
18021W        W18502   6.642  17.056   9.656
18022W        W18503   5.692  17.128  10.793
18023W        W18504   4.297  17.081   9.132
18024W        W18505   6.643  16.840   8.777
18025W        W18506   4.262  17.635   9.398
18026W        W18507   5.283  15.687  10.608
18027W        W18508   5.042  17.108  10.757
18028W        W18509   5.168  17.346   8.134
18029W        W18510   4.389  16.086   7.393
18030W        W18511   4.104  17.065  13.815
18031W        W18512   6.809  16.795  11.585
18032W        W18513   4.940  16.023  12.121
18033W        W18514   4.455  15.871  12.285
18034W        W18515   5.446  16.686  11.719
18035W        W18516   3.770  15.339  14.037
18036W        W18517   4.532  14.619  13.839
18037W        W18518   6.226  15.007  12.726
18038W        W18519   5.875  15.878  11.296
18039W        W18520   6.445  15.312  14.387
18040W        W18521   3.811  15.104  13.512
18041W        W18522   3.910  17.723  14.533
18042W        W18523   5.432  17.113  11.265
18043W        W18524   3.864  15.896  12.958
18044W        W18525   4.757  15.787  14.195
18045W        W18526   7.216  15.646  12.694
18046W        W18527   6.980  16.689  13.553
18047W        W18528   5.834  17.361  12.949
18048W        W18529   4.334  16.795  13.181
18049W        W18530   3.693  16.323  12.752
18050W        W18531   4.729  16.295  13.944
18051W        W18532   7.000  16.078  14.198
18052W        W18533   4.616  17.522  12.643
18053W        W18534   5.737  17.211  13.777
18054W        W18535   4.957  15.851  13.002
18055W        W18536   5.249  16.635  12.645
18056W        W18537   6.246  17.408  14.493
18057W        W18538   5.325  16.728  14.503
18058W        W18539   5.306  16.444  13.981
18059W        W18540   3.715  15.835  14.503
18060W        W18541   6.547  17.370  14.102
18061W        W18542   4.128  14.952  12.100
18062W        W18543   4.655  17.210  13.099
18063W        W18544   7.118  16.993  12.389
18064W        W18545   6.531  15.393  12.956
18065W        W18546   6.816  15.346  11.051
18066W        W18547   7.281  16.147  13.357
18067W        W18548   7.022  17.320  11.548
18068W        W18549   4.341  14.906  13.404
18069W        W18550   6.964  15.924  13.679
18070W        W18551   6.369  16.346  12.138
18071W        W18552   6.335  16.034  11.165
18072W        W18553   5.543  17.178  13.305
18073W        W18554   5.349  15.508  12.504
18074W        W18555   5.949  17.595  13.498
18075W        W18556   6.820  16.386  11.920
18076W        W18557   5.722  15.044  11.936
18077W        W18558   4.379  17.738  11.619
18078W        W18559   3.750  15.237  12.218
18079W        W18560   6.536  15.844  12.692
18080W        W18561   3.994  17.461  12.607
18081W        W18562   6.727  15.837  10.941
18082W        W18563   3.750  17.595  13.105
18083W        W18564   4.541  17.167  13.585
18084W        W18565   4.914  16.527  12.204
18085W        W18566   4.936  14.932  13.297
18086W        W18567   7.165  14.694  12.594
18087W        W18568   4.384  16.566  11.062
18088W        W18569   4.039  15.599  11.241
18089W        W18570   4.101  17.555  12.035
18090W        W18571   5.232  17.038  12.283
18091W        W18572   5.490  15.539  11.681
18092W        W18573   6.550  15.790  14.051
18093W        W18574   7.263  17.446  12.185
18094W        W18575   5.890  16.738  13.669
18095W        W18576   3.656  16.289  11.875
18096W        W18577   5.971  15.968  11.826
18097W        W18578   5.848  16.458  11.930
18098W        W18579   4.191  15.878  13.404
18099W        W18580   4.176  15.754  14.326
18100W        W18581   4.066  14.671  12.485
18101W        W18582   5.834  15.018  13.046
18102W        W18583   5.482  15.203  14.209
18103W        W18584   5.837  15.352  11.387
18104W        W18585   7.020  17.745  14.141
18105W        W18586   5.987  14.826  14.180
18106W        W18587   7.006  17.127  14.302
18107W        W18588   6.436  15.294  13.898
18108W        W18589   6.236  15.232  12.168
18109W        W18590   6.629  16.366  14.572
18110W        W18591   5.027  15.659  11.544
18111W        W18592   4.596  14.943  14.208
18112W        W18593   6.648  15.427  11.889
18113W        W18594   7.015  15.909  11.834
18114W        W18595   4.684  14.662  11.540
18115W        W18596   7.005  15.196  12.575
18116W        W18597   7.155  17.445  11.020
18117W        W18598   4.062  16.648  12.722
18118W        W18599   5.979  15.235  10.952
18119W        W18600   7.113  17.567  12.672
18120W        W18601   7.152  14.761  13.422
18121W        W18602   5.597  15.973  13.976
18122W        W18603   5.690  17.312  11.679
18123W        W18604   6.090  16.606  14.419
18124W        W18605   5.764  14.583  12.728
18125W        W18606   4.376  15.486  12.791
18126W        W18607   3.930  16.686  13.565
18127W        W18608   6.983  15.476  13.143
18128W        W18609   6.963  16.882  11.115
18129W        W18610   5.398  16.365  12.176
18130W        W18611   7.250  14.876  13.917
18131W        W18612   5.399  16.711  13.511
18132W        W18613   5.616  15.597  12.956
18133W        W18614   6.468  15.895  11.794
18134W        W18615   6.755  15.628  11.436
18135W        W18616   6.564  17.668  11.825
18136W        W18617   6.398  17.271  12.621
18137W        W18618   6.294  16.350  11.599
18138W        W18619   5.727  16.560  12.585
18139W        W18620   6.608  16.348  12.652
18140W        W18621   3.983  15.363  13.076
18141W        W18622   6.761  16.415  13.903
18142W        W18623   5.042  17.477  12.451
18143W        W18624   6.947  15.002  12.066
18144W        W18625   6.738  16.321  13.367
18145W        W18626   3.721  15.642  13.405
18146W        W18627   6.581  15.437  12.423
18147W        W18628   6.992  15.588  14.200
18148W        W18629   5.877  17.287  12.418
18149W        W18630   4.248  15.058  11.289
18150W        W18631   5.352  14.712  13.099
18151W        W18632   4.754  16.298  11.698
18152W        W18633   5.408  16.927  14.011
18153W        W18634   5.238  15.285  12.001
18154W        W18635   6.594  14.882  12.429
18155W        W18636   5.122  16.849  13.058
18156W        W18637   6.892  17.572  13.184
18157W        W18638   4.586  15.075  11.953
18158W        W18639   5.108  17.372  12.913
18159W        W18640   4.591  15.303  10.978
18160W        W18641   5.392  15.912  13.372
18161W        W18642   6.240  14.778  13.242
18162W        W18643   3.660  16.621  13.127
18163W        W18644   5.364  16.439  11.285
18164W        W18645   4.632  14.754  11.055
18165W        W18646   5.370  15.835  12.106
18166W        W18647   6.340  14.811  13.805
18167W        W18648   4.928  16.823  13.914
18168W        W18649   5.732  16.605  14.131
18169W        W18650   6.349  16.635  14.024
18170W        W18651   5.633  14.775  14.529
18171W        W18652   4.855  15.391  12.922
18172W        W18653   4.281  15.347  12.320
18173W        W18654   5.399  17.389  14.121
18174W        W18655   4.434  16.874  11.480
18175W        W18656   6.114  16.259  12.701
18176W        W18657   6.394  16.058  13.100
18177W        W18658   5.599  16.732  13.034
18178W        W18659   6.069  17.106  11.166
18179W        W18660   5.741  15.127  12.494
18180W        W18661   7.220  15.405  11.762
18181W        W18662   4.131  17.220  13.325
18182W        W18663   5.597  15.336  13.363
18183W        W18664   4.960  17.359  11.212
18184W        W18665   5.840  16.394  11.412
18185W        W18666   4.683  15.585  11.929
18186W        W18667   5.515  15.495  10.981
18187W        W18668   6.099  17.060  14.159
18188W        W18669   6.452  14.966  11.776
18189W        W18670   3.782  14.814  11.224
18190W        W18671   5.068  17.133  13.514
18191W        W18672   4.867  17.049  12.606
18192W        W18673   4.609  17.001  11.004
18193W        W18674   3.850  17.242  11.772
18194W        W18675   4.354  16.312  14.214
18195W        W18676   5.058  14.872  14.400
18196W        W18677   5.767  15.014  13.756
18197W        W18678   4.962  14.782  12.037
18198W        W18679   6.021  14.859  11.542
18199W        W18680   3.966  14.791  13.119
18200W        W18681   4.014  15.754  12.489
18201W        W18682   6.703  14.862  12.895
18202W        W18683   4.125  15.360  11.709
18203W        W18684   6.696  15.048  13.325
18204W        W18685   7.092  16.251  11.010
18205W        W18686   4.384  15.009  12.829
18206W        W18687   5.498  15.581  13.769
18207W        W18688   3.646  15.271  11.247
18208W        W18689   4.432  16.660  13.808
18209W        W18690   5.790  16.058  12.987
18210W        W18691   3.803  16.644  10.980
18211W        W18692   4.538  17.055  14.106
18212W        W18693   4.059  16.222  13.737
18213W        W18694   5.050  16.327  13.531
18214W        W18695   6.818  14.686  13.793
18215W        W18696   7.216  16.296  13.784
18216W        W18697   7.204  16.496  11.470
18217W        W18698   6.067  16.828  11.569
18218W        W18699   5.718  16.118  14.406
18219W        W18700   4.048  17.085  14.446
18220W        W18701   7.254  15.007  14.398
18221W        W18702   6.972  15.935  13.019
18222W        W18703   5.135  14.694  11.223
18223W        W18704   6.674  17.293  11.166
18224W        W18705   4.443  15.386  14.052
18225W        W18706   4.877  17.380  13.914
18226W        W18707   7.003  15.371  13.712
18227W        W18708   6.453  16.649  13.047
18228W        W18709   4.703  15.065  13.714
18229W        W18710   5.172  16.134  14.471
18230W        W18711   4.675  17.313  11.665
18231W        W18712   6.430  16.811  11.929
18232W        W18713   4.198  15.437  13.653
18233W        W18714   5.527  17.499  12.117
18234W        W18715   7.277  16.059  12.298
18235W        W18716   5.499  14.692  14.017
18236W        W18717   6.279  17.397  13.096
18237W        W18718   6.582  17.741  12.804
18238W        W18719   5.801  17.543  11.232
18239W        W18720   3.811  17.435  14.074
18240W        W18721   4.554  15.427  13.312
18241W        W18722   4.524  14.775  12.422
18242W        W18723   6.145  15.617  13.114
18243W        W18724   4.943  16.788  11.314
18244W        W18725   6.941  16.730  12.813
18245W        W18726   4.268  17.488  14.236
18246W        W18727   4.754  15.190  12.478
18247W        W18728   4.523  16.683  12.568
18248W        W18729   6.062  16.378  13.283
18249W        W18730   3.911  16.176  11.198
18250W        W18731   6.882  15.158  11.514
18251W        W18732   5.021  14.677  13.917
18252W        W18733   6.727  17.479  12.375
18253W        W18734   6.756  16.035  12.280
18254W        W18735   4.873  15.708  12.496
18255W        W18736   5.118  15.970  13.820
18256W        W18737   6.229  17.123  13.683
18257W        W18738   4.879  15.577  13.795
18258W        W18739   4.287  17.363  11.175
18259W        W18740   6.804  17.121  11.985
18260W        W18741   4.408  15.913  13.871
18261W        W18742   7.181  15.843  11.352
18262W        W18743   4.926  16.900  11.823
18263W        W18744   6.025  16.282  13.904
18264W        W18745   5.916  15.910  13.448
18265W        W18746   4.476  16.282  13.477
18266W        W18747   6.477  14.804  14.300
18267W        W18748   4.141  14.954  13.887
18268W        W18749   4.480  15.977  12.940
18269W        W18750   4.849  15.791  11.062
18270W        W18751   3.652  17.550  13.607
18271W        W18752   5.237  16.259  13.050
18272W        W18753   5.060  15.284  11.155
18273W        W18754   4.195  16.100  11.936
18274W        W18755   6.761  16.178  11.481
18275W        W18756   6.292  17.303  12.130
18276W        W18757   3.890  16.227  14.307
18277W        W18758   6.856  14.691  11.603
18278W        W18759   6.376  17.166  11.614
18279W        W18760   5.278  16.224  11.699
18280W        W18761   6.465  15.028  11.222
18281W        W18762   6.530  15.635  13.408
18282W        W18763   4.239  16.228  12.615
18283W        W18764   4.533  17.167  12.264
18284W        W18765   6.296  15.787  12.229
18285W        W18766   5.319  15.166  12.925
18286W        W18767   7.281  17.077  13.436
18287W        W18768   7.199  15.064  12.997
18288W        W18769   4.247  17.081  11.909
18289W        W18770   4.162  14.698  14.462
18290W        W18771   5.281  17.551  14.564
18291W        W18772   7.036  16.519  12.354
18292W        W18773   6.390  16.696  11.234
18293W        W18774   6.542  16.939  14.483
18294W        W18775   5.357  14.649  11.763
18295W        W18776   6.070  15.518  12.622
18296W        W18777   3.756  17.105  12.954
18297W        W18778   5.009  15.067  11.595
18298W        W18779   4.813  16.551  14.444
18299W        W18780   5.807  15.532  12.158
18300W        W18781   6.012  16.942  13.280
18301W        W18782   4.166  17.547  13.715
18302W        W18783   4.757  17.530  14.438
18303W        W18784   4.608  15.327  11.452
18304W        W18785   6.125  15.469  11.777
18305W        W18786   6.083  17.577  14.014
18306W        W18787   4.768  16.169  12.613
18307W        W18788   4.031  16.656  14.075
18308W        W18789   6.026  16.918  12.763
18309W        W18790   4.462  16.567  12.005
18310W        W18791   4.833  17.574  13.400
18311W        W18792   5.211  14.993  12.441
18312W        W18793   3.822  16.977  11.371
18313W        W18794   5.341  15.928  11.241
18314W        W18795   3.987  16.477  12.260
18315W        W18796   5.277  15.119  13.724
18316W        W18797   6.949  14.828  11.151
18317W        W18798   7.042  16.574  14.250
18318W        W18799   7.254  16.925  13.924
18319W        W18800   6.662  17.723  14.535
18320W        W18801   7.260  16.801  11.887
18321W        W18802   5.790  16.068  12.400
18322W        W18803   5.557  14.680  12.290
18323W        W18804   4.616  17.664  12.127
18324W        W18805   5.115  15.405  13.352
18325W        W18806   4.815  14.774  12.821
18326W        W18807   3.878  17.596  11.369
18327W        W18808   5.694  16.960  12.087
18328W        W18809   4.046  16.578  11.662
18329W        W18810   3.931  15.121  12.661
18330W        W18811   5.479  17.086  12.718
18331W        W18812   3.731  14.940  11.738
18332W        W18813   6.272  15.532  11.237
18333W        W18814   6.789  17.204  12.885
18334W        W18815   5.450  17.688  12.716
18335W        W18816   6.144  14.695  11.057
18336W        W18817   6.141  15.713  14.433
18337W        W18818   4.124  15.243  14.432
18338W        W18819   3.855  15.843  11.765
18339W        W18820   4.546  15.832  11.490
18340W        W18821   6.309  16.159  14.307
18341W        W18822   4.652  16.440  13.016
18342W        W18823   6.126  14.726  12.136
18343W        W18824   6.471  17.619  13.576
18344W        W18825   6.074  16.748  12.281
18345W        W18826   5.536  14.973  11.352
18346W        W18827   7.217  14.601  12.074
18347W        W18828   4.905  16.236  11.237
18348W        W18829   7.071  15.573  12.227
18349W        W18830   5.763  16.743  11.104
18350W        W18831   6.699  16.943  13.852
18351W        W18832   6.353  17.644  11.319
18352W        W18833   4.968  15.319  14.225
18353W        W18834   4.788  15.903  13.466
18354W        W18835   6.880  17.398  13.743
18355W        W18836   5.980  15.348  14.120
18356W        W18837   3.824  15.819  13.897
18357W        W18838   5.584  16.296  13.623
18358W        W18839   3.941  17.054  12.280
18359W        W18840   4.088  16.351  13.170
18360W        W18841   6.405  16.637  13.520
18361W        W18842   6.073  15.756  13.884
18362W        W18843   5.352  17.530  13.612
18363W        W18844   6.642  17.056  13.300
18364W        W18845   5.692  17.128  14.437
18365W        W18846   4.297  17.081  12.776
18366W        W18847   6.643  16.840  12.421
18367W        W18848   4.262  17.635  13.042
18368W        W18849   5.283  15.687  14.252
18369W        W18850   5.042  17.108  14.401
18370W        W18851   5.168  17.346  11.778
18371W        W18852   4.389  16.086  11.037
18372W        W18853   6.809  16.795  15.229
18373W        W18854   4.940  16.023  15.765
18374W        W18855   4.455  15.871  15.929
18375W        W18856   5.446  16.686  15.363
18376W        W18857   3.770  15.339  17.681
18377W        W18858   4.532  14.619  17.483
18378W        W18859   6.226  15.007  16.370
18379W        W18860   5.875  15.878  14.940
18380W        W18861   3.811  15.104  17.156
18381W        W18862   5.432  17.113  14.909
18382W        W18863   3.864  15.896  16.602
18383W        W18864   7.216  15.646  16.338
18384W        W18865   6.980  16.689  17.197
18385W        W18866   5.288  16.022  16.224
18386W        W18867   5.834  17.361  16.593
18387W        W18868   4.334  16.795  16.825
18388W        W18869   3.693  16.323  16.396
18389W        W18870   4.729  16.295  17.588
18390W        W18871   4.616  17.522  16.287
18391W        W18872   5.737  17.211  17.421
18392W        W18873   4.957  15.851  16.646
18393W        W18874   5.249  16.635  16.289
18394W        W18875   5.306  16.444  17.625
18395W        W18876   6.547  17.370  17.746
18396W        W18877   4.128  14.952  15.744
18397W        W18878   4.655  17.210  16.743
18398W        W18879   7.118  16.993  16.033
18399W        W18880   6.531  15.393  16.600
18400W        W18881   6.816  15.346  14.695
18401W        W18882   7.281  16.147  17.001
18402W        W18883   7.022  17.320  15.192
18403W        W18884   4.341  14.906  17.048
18404W        W18885   6.964  15.924  17.323
18405W        W18886   6.369  16.346  15.782
18406W        W18887   6.335  16.034  14.809
18407W        W18888   5.543  17.178  16.949
18408W        W18889   5.349  15.508  16.148
18409W        W18890   5.949  17.595  17.142
18410W        W18891   6.820  16.386  15.564
18411W        W18892   5.722  15.044  15.580
18412W        W18893   4.379  17.738  15.263
18413W        W18894   3.750  15.237  15.862
18414W        W18895   6.536  15.844  16.336
18415W        W18896   3.994  17.461  16.251
18416W        W18897   6.727  15.837  14.585
18417W        W18898   3.750  17.595  16.749
18418W        W18899   4.541  17.167  17.229
18419W        W18900   4.914  16.527  15.848
18420W        W18901   4.936  14.932  16.941
18421W        W18902   7.165  14.694  16.238
18422W        W18903   4.384  16.566  14.706
18423W        W18904   4.039  15.599  14.885
18424W        W18905   4.101  17.555  15.679
18425W        W18906   5.232  17.038  15.927
18426W        W18907   5.490  15.539  15.325
18427W        W18908   7.263  17.446  15.829
18428W        W18909   5.890  16.738  17.313
18429W        W18910   3.656  16.289  15.519
18430W        W18911   4.767  16.704  17.092
18431W        W18912   5.971  15.968  15.470
18432W        W18913   4.191  15.878  17.048
18433W        W18914   4.066  14.671  16.129
18434W        W18915   5.834  15.018  16.690
18435W        W18916   5.837  15.352  15.031
18436W        W18917   7.020  17.745  17.785
18437W        W18918   5.987  14.826  17.824
18438W        W18919   6.436  15.294  17.542
18439W        W18920   6.236  15.232  15.812
18440W        W18921   5.027  15.659  15.188
18441W        W18922   6.648  15.427  15.533
18442W        W18923   7.015  15.909  15.478
18443W        W18924   4.684  14.662  15.184
18444W        W18925   7.005  15.196  16.219
18445W        W18926   7.155  17.445  14.664
18446W        W18927   4.062  16.648  16.366
18447W        W18928   5.979  15.235  14.596
18448W        W18929   7.113  17.567  16.316
18449W        W18930   7.152  14.761  17.066
18450W        W18931   5.597  15.973  17.620
18451W        W18932   5.690  17.312  15.323
18452W        W18933   5.764  14.583  16.372
18453W        W18934   4.376  15.486  16.435
18454W        W18935   3.930  16.686  17.209
18455W        W18936   6.983  15.476  16.787
18456W        W18937   7.250  14.876  17.561
18457W        W18938   5.399  16.711  17.155
18458W        W18939   5.616  15.597  16.600
18459W        W18940   6.468  15.895  15.438
18460W        W18941   6.755  15.628  15.080
18461W        W18942   6.564  17.668  15.469
18462W        W18943   6.398  17.271  16.265
18463W        W18944   6.294  16.350  15.243
18464W        W18945   5.727  16.560  16.229
18465W        W18946   6.608  16.348  16.296
18466W        W18947   3.983  15.363  16.720
18467W        W18948   6.761  16.415  17.547
18468W        W18949   5.042  17.477  16.095
18469W        W18950   6.043  15.340  17.183
18470W        W18951   6.947  15.002  15.710
18471W        W18952   6.738  16.321  17.011
18472W        W18953   3.721  15.642  17.049
18473W        W18954   6.581  15.437  16.067
18474W        W18955   5.877  17.287  16.062
18475W        W18956   4.248  15.058  14.933
18476W        W18957   5.352  14.712  16.743
18477W        W18958   4.754  16.298  15.342
18478W        W18959   5.408  16.927  17.655
18479W        W18960   5.238  15.285  15.645
18480W        W18961   6.594  14.882  16.073
18481W        W18962   6.892  17.572  16.828
18482W        W18963   4.586  15.075  15.597
18483W        W18964   5.108  17.372  16.557
18484W        W18965   4.591  15.303  14.622
18485W        W18966   5.392  15.912  17.016
18486W        W18967   6.240  14.778  16.886
18487W        W18968   3.660  16.621  16.771
18488W        W18969   5.364  16.439  14.929
18489W        W18970   4.632  14.754  14.699
18490W        W18971   5.370  15.835  15.750
18491W        W18972   6.340  14.811  17.449
18492W        W18973   4.928  16.823  17.558
18493W        W18974   6.349  16.635  17.668
18494W        W18975   4.855  15.391  16.566
18495W        W18976   4.281  15.347  15.964
18496W        W18977   5.399  17.389  17.765
18497W        W18978   4.434  16.874  15.124
18498W        W18979   6.114  16.259  16.345
18499W        W18980   6.394  16.058  16.744
18500W        W18981   5.599  16.732  16.678
18501W        W18982   6.069  17.106  14.810
18502W        W18983   5.741  15.127  16.138
18503W        W18984   7.220  15.405  15.406
18504W        W18985   4.131  17.220  16.969
18505W        W18986   5.597  15.336  17.007
18506W        W18987   4.960  17.359  14.856
18507W        W18988   5.840  16.394  15.056
18508W        W18989   4.683  15.585  15.573
18509W        W18990   5.515  15.495  14.625
18510W        W18991   6.452  14.966  15.420
18511W        W18992   3.782  14.814  14.868
18512W        W18993   5.068  17.133  17.158
18513W        W18994   4.867  17.049  16.250
18514W        W18995   4.609  17.001  14.648
18515W        W18996   3.850  17.242  15.416
18516W        W18997   5.767  15.014  17.400
18517W        W18998   4.962  14.782  15.681
18518W        W18999   6.021  14.859  15.186
18519W        W19000   3.966  14.791  16.763
18520W        W19001   4.014  15.754  16.133
18521W        W19002   6.703  14.862  16.539
18522W        W19003   4.125  15.360  15.353
18523W        W19004   6.696  15.048  16.969
18524W        W19005   4.384  15.009  16.473
18525W        W19006   5.498  15.581  17.413
18526W        W19007   3.646  15.271  14.891
18527W        W19008   4.432  16.660  17.452
18528W        W19009   5.790  16.058  16.631
18529W        W19010   3.803  16.644  14.624
18530W        W19011   4.059  16.222  17.381
18531W        W19012   5.050  16.327  17.175
18532W        W19013   6.818  14.686  17.437
18533W        W19014   7.216  16.296  17.428
18534W        W19015   7.204  16.496  15.114
18535W        W19016   6.067  16.828  15.213
18536W        W19017   6.972  15.935  16.663
18537W        W19018   5.135  14.694  14.867
18538W        W19019   6.674  17.293  14.810
18539W        W19020   4.877  17.380  17.558
18540W        W19021   7.003  15.371  17.356
18541W        W19022   6.453  16.649  16.691
18542W        W19023   4.703  15.065  17.358
18543W        W19024   4.675  17.313  15.309
18544W        W19025   6.430  16.811  15.573
18545W        W19026   4.198  15.437  17.297
18546W        W19027   7.277  16.059  15.942
18547W        W19028   5.499  14.692  17.661
18548W        W19029   6.279  17.397  16.740
18549W        W19030   6.582  17.741  16.448
18550W        W19031   5.801  17.543  14.876
18551W        W19032   3.811  17.435  17.718
18552W        W19033   4.554  15.427  16.956
18553W        W19034   4.524  14.775  16.066
18554W        W19035   6.145  15.617  16.758
18555W        W19036   4.943  16.788  14.958
18556W        W19037   6.941  16.730  16.457
18557W        W19038   4.754  15.190  16.122
18558W        W19039   4.523  16.683  16.212
18559W        W19040   6.062  16.378  16.927
18560W        W19041   3.911  16.176  14.842
18561W        W19042   6.882  15.158  15.158
18562W        W19043   5.021  14.677  17.561
18563W        W19044   6.727  17.479  16.019
18564W        W19045   6.756  16.035  15.924
18565W        W19046   4.873  15.708  16.140
18566W        W19047   5.118  15.970  17.464
18567W        W19048   6.229  17.123  17.327
18568W        W19049   4.879  15.577  17.439
18569W        W19050   4.287  17.363  14.819
18570W        W19051   6.804  17.121  15.629
18571W        W19052   4.408  15.913  17.515
18572W        W19053   7.181  15.843  14.996
18573W        W19054   4.926  16.900  15.467
18574W        W19055   6.025  16.282  17.548
18575W        W19056   5.916  15.910  17.092
18576W        W19057   4.476  16.282  17.121
18577W        W19058   4.141  14.954  17.531
18578W        W19059   4.480  15.977  16.584
18579W        W19060   4.849  15.791  14.706
18580W        W19061   3.652  17.550  17.251
18581W        W19062   5.237  16.259  16.694
18582W        W19063   5.060  15.284  14.799
18583W        W19064   4.195  16.100  15.580
18584W        W19065   6.761  16.178  15.125
18585W        W19066   6.292  17.303  15.774
18586W        W19067   6.856  14.691  15.247
18587W        W19068   6.376  17.166  15.258
18588W        W19069   5.278  16.224  15.343
18589W        W19070   6.465  15.028  14.866
18590W        W19071   6.530  15.635  17.052
18591W        W19072   4.239  16.228  16.259
18592W        W19073   4.533  17.167  15.908
18593W        W19074   6.296  15.787  15.873
18594W        W19075   5.319  15.166  16.569
18595W        W19076   7.281  17.077  17.080
18596W        W19077   7.199  15.064  16.641
18597W        W19078   4.247  17.081  15.553
18598W        W19079   7.036  16.519  15.998
18599W        W19080   6.390  16.696  14.878
18600W        W19081   5.357  14.649  15.407
18601W        W19082   6.070  15.518  16.266
18602W        W19083   3.756  17.105  16.598
18603W        W19084   5.009  15.067  15.239
18604W        W19085   5.807  15.532  15.802
18605W        W19086   6.012  16.942  16.924
18606W        W19087   4.166  17.547  17.359
18607W        W19088   4.608  15.327  15.096
18608W        W19089   6.125  15.469  15.421
18609W        W19090   6.083  17.577  17.658
18610W        W19091   4.768  16.169  16.257
18611W        W19092   6.026  16.918  16.407
18612W        W19093   4.833  17.574  17.044
18613W        W19094   5.211  14.993  16.085
18614W        W19095   3.822  16.977  15.015
18615W        W19096   5.341  15.928  14.885
18616W        W19097   3.987  16.477  15.904
18617W        W19098   5.277  15.119  17.368
18618W        W19099   6.949  14.828  14.795
18619W        W19100   7.254  16.925  17.568
18620W        W19101   7.260  16.801  15.531
18621W        W19102   5.557  14.680  15.934
18622W        W19103   4.616  17.664  15.771
18623W        W19104   5.115  15.405  16.996
18624W        W19105   4.815  14.774  16.465
18625W        W19106   3.878  17.596  15.013
18626W        W19107   5.694  16.960  15.731
18627W        W19108   4.046  16.578  15.306
18628W        W19109   3.931  15.121  16.305
18629W        W19110   5.479  17.086  16.362
18630W        W19111   3.731  14.940  15.382
18631W        W19112   6.395  16.146  17.309
18632W        W19113   6.272  15.532  14.881
18633W        W19114   6.789  17.204  16.529
18634W        W19115   5.450  17.688  16.360
18635W        W19116   6.144  14.695  14.701
18636W        W19117   3.855  15.843  15.409
18637W        W19118   4.546  15.832  15.134
18638W        W19119   4.652  16.440  16.660
18639W        W19120   6.126  14.726  15.780
18640W        W19121   6.471  17.619  17.220
18641W        W19122   6.074  16.748  15.925
18642W        W19123   5.536  14.973  14.996
18643W        W19124   7.217  14.601  15.718
18644W        W19125   4.905  16.236  14.881
18645W        W19126   7.071  15.573  15.871
18646W        W19127   5.763  16.743  14.748
18647W        W19128   6.699  16.943  17.496
18648W        W19129   6.353  17.644  14.963
18649W        W19130   4.788  15.903  17.110
18650W        W19131   6.880  17.398  17.387
18651W        W19132   3.824  15.819  17.541
18652W        W19133   5.584  16.296  17.267
18653W        W19134   3.941  17.054  15.924
18654W        W19135   4.088  16.351  16.814
18655W        W19136   6.405  16.637  17.164
18656W        W19137   6.073  15.756  17.528
18657W        W19138   5.352  17.530  17.256
18658W        W19139   6.642  17.056  16.944
18659W        W19140   4.297  17.081  16.420
18660W        W19141   6.643  16.840  16.065
18661W        W19142   4.262  17.635  16.686
18662W        W19143   5.168  17.346  15.422
18663W        W19144   4.389  16.086  14.681
18664W        W19145   7.373   3.595   3.359
18665W        W19146   7.749   2.488   2.882
18666W        W19147  10.454   2.218   0.652
18667W        W19148  10.584   3.303   2.679
18668W        W19149   8.502   3.294   0.205
18669W        W19150   8.585   1.446   1.188
18670W        W19151   8.100   1.294   1.352
18671W        W19152   9.091   2.109   0.786
18672W        W19153   8.766   3.201   3.141
18673W        W19154   7.415   0.762   3.104
18674W        W19155   8.177   0.042   2.906
18675W        W19156   9.871   0.430   1.793
18676W        W19157   9.520   1.301   0.363
18677W        W19158  10.090   0.735   3.454
18678W        W19159   7.456   0.527   2.579
18679W        W19160   7.555   3.146   3.600
18680W        W19161   9.077   2.536   0.332
18681W        W19162   7.509   1.319   2.025
18682W        W19163   8.402   1.210   3.262
18683W        W19164  10.861   1.069   1.761
18684W        W19165  10.625   2.112   2.620
18685W        W19166   8.933   1.445   1.647
18686W        W19167   9.479   2.784   2.016
18687W        W19168   7.979   2.218   2.248
18688W        W19169   7.338   1.746   1.819
18689W        W19170   8.374   1.718   3.011
18690W        W19171  10.645   1.501   3.265
18691W        W19172   8.261   2.945   1.710
18692W        W19173   9.382   2.634   2.844
18693W        W19174   8.602   1.274   2.069
18694W        W19175   8.894   2.058   1.712
18695W        W19176   9.891   2.831   3.560
18696W        W19177   8.970   2.151   3.570
18697W        W19178   8.951   1.867   3.048
18698W        W19179   7.360   1.258   3.570
18699W        W19180  10.192   2.793   3.169
18700W        W19181   7.773   0.375   1.167
18701W        W19182   8.300   2.633   2.166
18702W        W19183  10.763   2.416   1.456
18703W        W19184  10.176   0.816   2.023
18704W        W19185  10.461   0.769   0.118
18705W        W19186  10.926   1.570   2.424
18706W        W19187   8.893   3.277   2.177
18707W        W19188   7.796   3.529   0.369
18708W        W19189   8.189   3.575   1.045
18709W        W19190   7.986   0.329   2.471
18710W        W19191  10.609   1.347   2.746
18711W        W19192  10.014   1.769   1.205
18712W        W19193   9.980   1.457   0.232
18713W        W19194   9.188   2.601   2.372
18714W        W19195   8.994   0.931   1.571
18715W        W19196   9.594   3.018   2.565
18716W        W19197  10.465   1.809   0.987
18717W        W19198   9.367   0.467   1.003
18718W        W19199   8.024   3.161   0.686
18719W        W19200   7.395   0.660   1.285
18720W        W19201  10.181   1.267   1.759
18721W        W19202   7.639   2.884   1.674
18722W        W19203   8.980   3.234   0.544
18723W        W19204  10.372   1.260   0.008
18724W        W19205   7.395   3.018   2.172
18725W        W19206   8.186   2.590   2.652
18726W        W19207   8.559   1.950   1.271
18727W        W19208   8.581   0.355   2.364
18728W        W19209  10.810   0.117   1.661
18729W        W19210   8.029   1.989   0.129
18730W        W19211   7.684   1.022   0.308
18731W        W19212   7.746   2.978   1.102
18732W        W19213   8.877   2.461   1.350
18733W        W19214  10.209   3.320   3.064
18734W        W19215   9.135   0.962   0.748
18735W        W19216  10.518   3.360   1.520
18736W        W19217  10.195   1.213   3.118
18737W        W19218  10.908   2.869   1.252
18738W        W19219   9.535   2.161   2.736
18739W        W19220   7.301   1.712   0.942
18740W        W19221   8.412   2.127   2.515
18741W        W19222   9.616   1.391   0.893
18742W        W19223   9.493   1.881   0.997
18743W        W19224   7.836   1.301   2.471
18744W        W19225   7.821   1.177   3.393
18745W        W19226   7.711   0.094   1.552
18746W        W19227   9.479   0.441   2.113
18747W        W19228   9.127   0.626   3.276
18748W        W19229   9.482   0.775   0.454
18749W        W19230  10.665   3.168   3.208
18750W        W19231   9.632   0.249   3.247
18751W        W19232  10.651   2.550   3.369
18752W        W19233  10.081   0.717   2.965
18753W        W19234   9.881   0.655   1.235
18754W        W19235  10.274   1.789   3.639
18755W        W19236   8.014   3.365   1.625
18756W        W19237   8.672   1.082   0.611
18757W        W19238   8.241   0.366   3.275
18758W        W19239  10.293   0.850   0.956
18759W        W19240  10.660   1.332   0.901
18760W        W19241   8.403   3.549   3.372
18761W        W19242   8.329   0.085   0.607
18762W        W19243  10.650   0.619   1.642
18763W        W19244  10.800   2.868   0.087
18764W        W19245   7.707   2.071   1.789
18765W        W19246   9.624   0.658   0.019
18766W        W19247  10.758   2.990   1.739
18767W        W19248  10.797   0.184   2.489
18768W        W19249   9.242   1.396   3.043
18769W        W19250   9.335   2.735   0.746
18770W        W19251   9.735   2.029   3.486
18771W        W19252   9.409   0.006   1.795
18772W        W19253   8.021   0.909   1.858
18773W        W19254   7.575   2.109   2.632
18774W        W19255   9.434   3.302   1.338
18775W        W19256  10.628   0.899   2.210
18776W        W19257   9.265   3.246   2.977
18777W        W19258  10.608   2.305   0.182
18778W        W19259   9.043   1.788   1.243
18779W        W19260  10.895   0.299   2.984
18780W        W19261   9.044   2.134   2.578
18781W        W19262   9.261   1.020   2.023
18782W        W19263  10.113   1.318   0.861
18783W        W19264  10.400   1.051   0.503
18784W        W19265  10.209   3.091   0.892
18785W        W19266   9.939   1.773   0.666
18786W        W19267   9.372   1.983   1.652
18787W        W19268  10.253   1.771   1.719
18788W        W19269   7.628   0.786   2.143
18789W        W19270  10.406   1.838   2.970
18790W        W19271  10.757   3.456   2.116
18791W        W19272   8.687   2.900   1.518
18792W        W19273   9.694   3.433   2.842
18793W        W19274   9.688   0.763   2.606
18794W        W19275   8.895   3.471   2.667
18795W        W19276  10.592   0.425   1.133
18796W        W19277  10.383   1.744   2.434
18797W        W19278   7.366   1.065   2.472
18798W        W19279  10.226   0.860   1.490
18799W        W19280  10.637   1.011   3.267
18800W        W19281   9.522   2.710   1.485
18801W        W19282   8.778   3.301   1.098
18802W        W19283   7.893   0.481   0.356
18803W        W19284   8.997   0.135   2.166
18804W        W19285   8.025   3.255   0.014
18805W        W19286   8.399   1.721   0.765
18806W        W19287   9.053   2.350   3.078
18807W        W19288   8.883   0.708   1.068
18808W        W19289  10.239   0.305   1.496
18809W        W19290   9.959   3.587   1.824
18810W        W19291   9.371   3.235   2.164
18811W        W19292   8.767   2.272   2.125
18812W        W19293  10.537   2.995   2.251
18813W        W19294   8.231   0.498   1.020
18814W        W19295   8.753   2.795   1.980
18815W        W19296   8.236   0.726   0.045
18816W        W19297   9.037   1.335   2.439
18817W        W19298   9.885   0.201   2.309
18818W        W19299   7.305   2.044   2.194
18819W        W19300   9.009   1.862   0.352
18820W        W19301   8.277   0.177   0.122
18821W        W19302   9.015   1.258   1.173
18822W        W19303   9.985   0.234   2.872
18823W        W19304   8.573   2.246   2.981
18824W        W19305   9.377   2.028   3.198
18825W        W19306   9.994   2.058   3.091
18826W        W19307   9.278   0.198   3.596
18827W        W19308   8.500   0.814   1.989
18828W        W19309   7.926   0.770   1.387
18829W        W19310   7.712   3.482   1.063
18830W        W19311   9.044   2.812   3.188
18831W        W19312   8.079   2.297   0.547
18832W        W19313   9.759   1.682   1.768
18833W        W19314  10.039   1.481   2.167
18834W        W19315   9.244   2.155   2.101
18835W        W19316   9.714   2.529   0.233
18836W        W19317   9.386   0.550   1.561
18837W        W19318  10.865   0.828   0.829
18838W        W19319   7.359   3.417   2.860
18839W        W19320   7.776   2.643   2.392
18840W        W19321   7.343   3.489   0.624
18841W        W19322   9.242   0.759   2.430
18842W        W19323   8.605   2.782   0.279
18843W        W19324  10.510   3.164   0.465
18844W        W19325   9.485   1.817   0.479
18845W        W19326   8.328   1.008   0.996
18846W        W19327   9.160   0.918   0.048
18847W        W19328   9.744   2.483   3.226
18848W        W19329  10.097   0.389   0.843
18849W        W19330   7.427   0.237   0.291
18850W        W19331   8.713   2.556   2.581
18851W        W19332   8.512   2.472   1.673
18852W        W19333   8.254   2.424   0.071
18853W        W19334   7.495   2.665   0.839
18854W        W19335   7.999   1.735   3.281
18855W        W19336   8.703   0.295   3.467
18856W        W19337   9.412   0.437   2.823
18857W        W19338   8.607   0.205   1.104
18858W        W19339   9.666   0.282   0.609
18859W        W19340   7.611   0.214   2.186
18860W        W19341   7.659   1.177   1.556
18861W        W19342  10.348   0.285   1.962
18862W        W19343   7.770   0.783   0.776
18863W        W19344  10.341   0.471   2.392
18864W        W19345  10.737   1.674   0.077
18865W        W19346   8.029   0.432   1.896
18866W        W19347   9.143   1.004   2.836
18867W        W19348   7.291   0.694   0.314
18868W        W19349   8.077   2.083   2.875
18869W        W19350   9.435   1.481   2.054
18870W        W19351   9.302   3.560   0.350
18871W        W19352   7.448   2.067   0.047
18872W        W19353   8.183   2.478   3.173
18873W        W19354   7.704   1.645   2.804
18874W        W19355   8.695   1.750   2.598
18875W        W19356  10.463   0.109   2.860
18876W        W19357  10.861   1.719   2.851
18877W        W19358  10.849   1.919   0.537
18878W        W19359   9.712   2.251   0.636
18879W        W19360  10.186   3.551   0.331
18880W        W19361   9.363   1.541   3.473
18881W        W19362   7.693   2.508   3.513
18882W        W19363  10.899   0.430   3.465
18883W        W19364  10.617   1.358   2.086
18884W        W19365   8.925   3.488   3.563
18885W        W19366   8.780   0.117   0.290
18886W        W19367  10.319   2.716   0.233
18887W        W19368   8.088   0.809   3.119
18888W        W19369   8.522   2.803   2.981
18889W        W19370  10.648   0.794   2.779
18890W        W19371   9.859   3.453   0.747
18891W        W19372  10.098   2.072   2.114
18892W        W19373   8.348   0.488   2.781
18893W        W19374   8.817   1.557   3.538
18894W        W19375   8.320   2.736   0.732
18895W        W19376  10.075   2.234   0.996
18896W        W19377   7.843   0.860   2.720
18897W        W19378   9.172   2.922   1.184
18898W        W19379  10.922   1.482   1.365
18899W        W19380   9.144   0.115   3.084
18900W        W19381   9.924   2.820   2.163
18901W        W19382  10.227   3.164   1.871
18902W        W19383   9.446   2.966   0.299
18903W        W19384   7.456   2.858   3.141
18904W        W19385   8.199   0.850   2.379
18905W        W19386   8.169   0.198   1.489
18906W        W19387   9.790   1.040   2.181
18907W        W19388   8.588   2.211   0.381
18908W        W19389  10.586   2.153   1.880
18909W        W19390   7.913   2.911   3.303
18910W        W19391  10.300   3.593   1.100
18911W        W19392   8.399   0.613   1.545
18912W        W19393   8.168   2.106   1.635
18913W        W19394   8.481   3.517   2.385
18914W        W19395  10.548   3.613   3.417
18915W        W19396   9.707   1.801   2.350
18916W        W19397   7.556   1.599   0.265
18917W        W19398  10.690   3.257   0.962
18918W        W19399  10.527   0.581   0.581
18919W        W19400   8.666   0.100   2.984
18920W        W19401  10.372   2.902   1.442
18921W        W19402  10.401   1.458   1.347
18922W        W19403   8.518   1.131   1.563
18923W        W19404   8.763   1.393   2.887
18924W        W19405   9.874   2.546   2.750
18925W        W19406   8.524   1.000   2.862
18926W        W19407   8.503   3.466   1.478
18927W        W19408   7.820   3.425   3.112
18928W        W19409   7.932   2.786   0.242
18929W        W19410  10.449   2.544   1.052
18930W        W19411   8.053   1.336   2.938
18931W        W19412  10.826   1.266   0.419
18932W        W19413   8.571   2.323   0.890
18933W        W19414   9.670   1.705   2.971
18934W        W19415   9.561   1.333   2.515
18935W        W19416   8.121   1.705   2.544
18936W        W19417  10.331   3.593   2.373
18937W        W19418  10.122   0.227   3.367
18938W        W19419   7.786   0.377   2.954
18939W        W19420   8.125   1.400   2.007
18940W        W19421   8.494   1.214   0.129
18941W        W19422   7.297   2.973   2.674
18942W        W19423   8.882   1.682   2.117
18943W        W19424   8.705   0.707   0.222
18944W        W19425   7.840   1.523   1.003
18945W        W19426   7.611   3.375   2.440
18946W        W19427  10.406   1.601   0.548
18947W        W19428  10.501   0.517   3.234
18948W        W19429   9.937   2.726   1.197
18949W        W19430   7.535   1.650   3.374
18950W        W19431  10.501   0.114   0.670
18951W        W19432  10.021   2.589   0.681
18952W        W19433   8.923   1.647   0.766
18953W        W19434  10.110   0.451   0.289
18954W        W19435  10.175   1.058   2.475
18955W        W19436   7.884   1.651   1.682
18956W        W19437   8.178   2.590   1.331
18957W        W19438   9.941   1.210   1.296
18958W        W19439   8.964   0.589   1.992
18959W        W19440  10.926   2.500   2.503
18960W        W19441  10.844   0.487   2.064
18961W        W19442   7.383   3.317   1.440
18962W        W19443   7.892   2.504   0.976
18963W        W19444   7.807   0.121   3.529
18964W        W19445   8.926   2.974   3.631
18965W        W19446  10.681   1.942   1.421
18966W        W19447  10.035   2.119   0.301
18967W        W19448   9.330   3.640   2.513
18968W        W19449  10.187   2.362   3.550
18969W        W19450   9.002   0.072   0.830
18970W        W19451   9.715   0.941   1.689
18971W        W19452   7.401   2.528   2.021
18972W        W19453   8.654   0.490   0.662
18973W        W19454   8.458   1.974   3.511
18974W        W19455   9.452   0.955   1.225
18975W        W19456   9.657   2.365   2.347
18976W        W19457   7.811   2.970   2.782
18977W        W19458   8.402   2.953   3.505
18978W        W19459   8.253   0.750   0.519
18979W        W19460   9.770   0.892   0.844
18980W        W19461   9.728   3.000   3.081
18981W        W19462   8.413   1.592   1.680
18982W        W19463   8.068   3.290   2.545
18983W        W19464  10.813   3.407   0.146
18984W        W19465   7.676   2.079   3.142
18985W        W19466   9.671   2.341   1.830
18986W        W19467   8.107   1.990   1.072
18987W        W19468   8.478   2.997   2.467
18988W        W19469   8.856   0.416   1.508
18989W        W19470   7.467   2.400   0.438
18990W        W19471   8.986   1.351   0.308
18991W        W19472   7.632   1.900   1.327
18992W        W19473   8.922   0.542   2.791
18993W        W19474  10.594   0.251   0.218
18994W        W19475  10.687   1.997   3.317
18995W        W19476   9.341   3.254   3.469
18996W        W19477  10.899   2.348   2.991
18997W        W19478  10.307   3.146   3.602
18998W        W19479   8.046   3.602   2.080
18999W        W19480  10.905   2.224   0.954
19000W        W19481   9.435   1.491   1.467
19001W        W19482   9.202   0.103   1.357
19002W        W19483   8.261   3.087   1.194
19003W        W19484   8.760   0.828   2.419
19004W        W19485   8.460   0.197   1.888
19005W        W19486   7.523   3.019   0.436
19006W        W19487   9.339   2.383   1.154
19007W        W19488   8.214   3.178   3.033
19008W        W19489   7.691   2.001   0.729
19009W        W19490   7.576   0.544   1.728
19010W        W19491   9.124   2.509   1.785
19011W        W19492   7.376   0.363   0.805
19012W        W19493  10.040   1.569   2.732
19013W        W19494   9.917   0.955   0.304
19014W        W19495  10.434   2.627   1.952
19015W        W19496   9.095   3.111   1.783
19016W        W19497   8.507   3.215   0.694
19017W        W19498   9.789   0.118   0.124
19018W        W19499   7.589   3.378   1.865
19019W        W19500   9.786   1.136   3.500
19020W        W19501   7.769   0.666   3.499
19021W        W19502   7.500   1.266   0.832
19022W        W19503   8.191   1.255   0.557
19023W        W19504   9.954   1.582   3.374
19024W        W19505   8.297   1.863   2.083
19025W        W19506   9.771   0.149   1.203
19026W        W19507   8.902   3.580   1.706
19027W        W19508  10.116   3.042   2.643
19028W        W19509   9.700   3.191   1.754
19029W        W19510   9.719   2.171   1.348
19030W        W19511   9.181   0.396   0.419
19031W        W19512  10.862   0.024   1.141
19032W        W19513  10.716   0.996   1.294
19033W        W19514   9.408   2.166   0.171
19034W        W19515  10.344   2.366   2.919
19035W        W19516   9.998   3.067   0.386
19036W        W19517   8.613   0.742   3.292
19037W        W19518   8.433   1.326   2.533
19038W        W19519  10.525   2.821   2.810
19039W        W19520   9.625   0.771   3.187
19040W        W19521   7.469   1.242   2.964
19041W        W19522   9.229   1.719   2.690
19042W        W19523   7.586   2.477   1.347
19043W        W19524   7.733   1.774   2.237
19044W        W19525  10.050   2.060   2.587
19045W        W19526   9.822   3.440   3.398
19046W        W19527   9.718   1.179   2.951
19047W        W19528   9.995   3.233   1.356
19048W        W19529   8.997   2.953   2.679
19049W        W19530   8.482   3.308   1.948
19050W        W19531  10.287   2.479   2.367
19051W        W19532   9.337   2.551   3.504
19052W        W19533   7.942   2.504   1.843
19053W        W19534   9.929   3.329   2.239
19054W        W19535   7.907   3.058   2.109
19055W        W19536   8.928   1.110   3.319
19056W        W19537   9.379   3.276   0.830
19057W        W19538   8.687   2.531   3.468
19058W        W19539   8.813   2.769   0.845
19059W        W19540   8.034   1.509   0.104
19060W        W19541   7.373   3.595   7.003
19061W        W19542   7.749   2.488   6.526
19062W        W19543  10.454   2.218   4.296
19063W        W19544  10.584   3.303   6.323
19064W        W19545   8.502   3.294   3.849
19065W        W19546   8.585   1.446   4.832
19066W        W19547   8.100   1.294   4.996
19067W        W19548   9.091   2.109   4.430
19068W        W19549   8.766   3.201   6.785
19069W        W19550   7.415   0.762   6.748
19070W        W19551   8.177   0.042   6.550
19071W        W19552   9.871   0.430   5.437
19072W        W19553   9.520   1.301   4.007
19073W        W19554  10.090   0.735   7.098
19074W        W19555   7.456   0.527   6.223
19075W        W19556   7.555   3.146   7.244
19076W        W19557   9.077   2.536   3.976
19077W        W19558   7.509   1.319   5.669
19078W        W19559   8.402   1.210   6.906
19079W        W19560  10.861   1.069   5.405
19080W        W19561  10.625   2.112   6.264
19081W        W19562   8.933   1.445   5.291
19082W        W19563   9.479   2.784   5.660
19083W        W19564   7.979   2.218   5.892
19084W        W19565   7.338   1.746   5.463
19085W        W19566   8.374   1.718   6.655
19086W        W19567   8.261   2.945   5.354
19087W        W19568   9.382   2.634   6.488
19088W        W19569   8.602   1.274   5.713
19089W        W19570   8.894   2.058   5.356
19090W        W19571   9.891   2.831   7.204
19091W        W19572   8.970   2.151   7.214
19092W        W19573   8.951   1.867   6.692
19093W        W19574   7.360   1.258   7.214
19094W        W19575  10.192   2.793   6.813
19095W        W19576   7.773   0.375   4.811
19096W        W19577   8.300   2.633   5.810
19097W        W19578  10.763   2.416   5.100
19098W        W19579  10.176   0.816   5.667
19099W        W19580  10.926   1.570   6.068
19100W        W19581   8.893   3.277   5.821
19101W        W19582  10.667   2.743   4.259
19102W        W19583   7.796   3.529   4.013
19103W        W19584   7.986   0.329   6.115
19104W        W19585  10.609   1.347   6.390
19105W        W19586  10.014   1.769   4.849
19106W        W19587   9.980   1.457   3.876
19107W        W19588   9.188   2.601   6.016
19108W        W19589   8.994   0.931   5.215
19109W        W19590   9.594   3.018   6.209
19110W        W19591  10.465   1.809   4.631
19111W        W19592   9.367   0.467   4.647
19112W        W19593   8.024   3.161   4.330
19113W        W19594   7.395   0.660   4.929
19114W        W19595  10.181   1.267   5.403
19115W        W19596   7.639   2.884   5.318
19116W        W19597   8.980   3.234   4.188
19117W        W19598  10.372   1.260   3.652
19118W        W19599   7.395   3.018   5.816
19119W        W19600   8.186   2.590   6.296
19120W        W19601   8.559   1.950   4.915
19121W        W19602  10.810   0.117   5.305
19122W        W19603   8.029   1.989   3.773
19123W        W19604   7.684   1.022   3.952
19124W        W19605   8.877   2.461   4.994
19125W        W19606  10.209   3.320   6.708
19126W        W19607   9.135   0.962   4.392
19127W        W19608  10.518   3.360   5.164
19128W        W19609  10.195   1.213   6.762
19129W        W19610  10.908   2.869   4.896
19130W        W19611   9.535   2.161   6.380
19131W        W19612   7.301   1.712   4.586
19132W        W19613   8.412   2.127   6.159
19133W        W19614   9.616   1.391   4.537
19134W        W19615   9.493   1.881   4.641
19135W        W19616   7.836   1.301   6.115
19136W        W19617   7.821   1.177   7.037
19137W        W19618   7.711   0.094   5.196
19138W        W19619   9.479   0.441   5.757
19139W        W19620   9.127   0.626   6.920
19140W        W19621   9.482   0.775   4.098
19141W        W19622  10.665   3.168   6.852
19142W        W19623   9.632   0.249   6.891
19143W        W19624  10.651   2.550   7.013
19144W        W19625  10.081   0.717   6.609
19145W        W19626   9.881   0.655   4.879
19146W        W19627  10.274   1.789   7.283
19147W        W19628   8.014   3.365   5.269
19148W        W19629   8.672   1.082   4.255
19149W        W19630   8.241   0.366   6.919
19150W        W19631  10.293   0.850   4.600
19151W        W19632   8.403   3.549   7.016
19152W        W19633   8.329   0.085   4.251
19153W        W19634  10.650   0.619   5.286
19154W        W19635  10.800   2.868   3.731
19155W        W19636   7.707   2.071   5.433
19156W        W19637   9.624   0.658   3.663
19157W        W19638  10.758   2.990   5.383
19158W        W19639  10.797   0.184   6.133
19159W        W19640   9.242   1.396   6.687
19160W        W19641   9.335   2.735   4.390
19161W        W19642   9.735   2.029   7.130
19162W        W19643   9.409   0.006   5.439
19163W        W19644   8.021   0.909   5.502
19164W        W19645   7.575   2.109   6.276
19165W        W19646   9.434   3.302   4.982
19166W        W19647  10.628   0.899   5.854
19167W        W19648   9.265   3.246   6.621
19168W        W19649  10.608   2.305   3.826
19169W        W19650   9.043   1.788   4.887
19170W        W19651  10.895   0.299   6.628
19171W        W19652   9.044   2.134   6.222
19172W        W19653   9.261   1.020   5.667
19173W        W19654  10.113   1.318   4.505
19174W        W19655  10.400   1.051   4.147
19175W        W19656  10.209   3.091   4.536
19176W        W19657  10.043   2.694   5.332
19177W        W19658   9.939   1.773   4.310
19178W        W19659  10.253   1.771   5.363
19179W        W19660   7.628   0.786   5.787
19180W        W19661  10.406   1.838   6.614
19181W        W19662  10.757   3.456   5.760
19182W        W19663   9.694   3.433   6.486
19183W        W19664   9.688   0.763   6.250
19184W        W19665   8.895   3.471   6.311
19185W        W19666  10.383   1.744   6.078
19186W        W19667   7.366   1.065   6.116
19187W        W19668  10.226   0.860   5.134
19188W        W19669  10.637   1.011   6.911
19189W        W19670   9.522   2.710   5.129
19190W        W19671   7.893   0.481   4.000
19191W        W19672   8.997   0.135   5.810
19192W        W19673   8.025   3.255   3.658
19193W        W19674   8.399   1.721   4.409
19194W        W19675   9.053   2.350   6.722
19195W        W19676   8.883   0.708   4.712
19196W        W19677  10.239   0.305   5.140
19197W        W19678   9.959   3.587   5.468
19198W        W19679   9.371   3.235   5.808
19199W        W19680   8.767   2.272   5.769
19200W        W19681  10.537   2.995   5.895
19201W        W19682   8.231   0.498   4.664
19202W        W19683   8.753   2.795   5.624
19203W        W19684   8.236   0.726   3.689
19204W        W19685   9.037   1.335   6.083
19205W        W19686   9.885   0.201   5.953
19206W        W19687   7.305   2.044   5.838
19207W        W19688   9.009   1.862   3.996
19208W        W19689   8.277   0.177   3.766
19209W        W19690   9.015   1.258   4.817
19210W        W19691   9.985   0.234   6.516
19211W        W19692   8.573   2.246   6.625
19212W        W19693   9.377   2.028   6.842
19213W        W19694   9.994   2.058   6.735
19214W        W19695   9.278   0.198   7.240
19215W        W19696   8.500   0.814   5.633
19216W        W19697   7.926   0.770   5.031
19217W        W19698   7.712   3.482   4.707
19218W        W19699   9.044   2.812   6.832
19219W        W19700   8.079   2.297   4.191
19220W        W19701   9.759   1.682   5.412
19221W        W19702  10.039   1.481   5.811
19222W        W19703   9.244   2.155   5.745
19223W        W19704   9.714   2.529   3.877
19224W        W19705   9.386   0.550   5.205
19225W        W19706   7.359   3.417   6.504
19226W        W19707   7.776   2.643   6.036
19227W        W19708   7.343   3.489   4.268
19228W        W19709   9.242   0.759   6.074
19229W        W19710   8.605   2.782   3.923
19230W        W19711  10.510   3.164   4.109
19231W        W19712   9.485   1.817   4.123
19232W        W19713   8.328   1.008   4.640
19233W        W19714   9.160   0.918   3.692
19234W        W19715   9.744   2.483   6.870
19235W        W19716  10.097   0.389   4.487
19236W        W19717   7.427   0.237   3.935
19237W        W19718   8.713   2.556   6.225
19238W        W19719   8.512   2.472   5.317
19239W        W19720   8.254   2.424   3.715
19240W        W19721   7.495   2.665   4.483
19241W        W19722   7.999   1.735   6.925
19242W        W19723   8.703   0.295   7.111
19243W        W19724   9.412   0.437   6.467
19244W        W19725   8.607   0.205   4.748
19245W        W19726   9.666   0.282   4.253
19246W        W19727   7.611   0.214   5.830
19247W        W19728   7.659   1.177   5.200
19248W        W19729  10.348   0.285   5.606
19249W        W19730   7.770   0.783   4.420
19250W        W19731  10.341   0.471   6.036
19251W        W19732  10.737   1.674   3.721
19252W        W19733   8.029   0.432   5.540
19253W        W19734   9.143   1.004   6.480
19254W        W19735   7.291   0.694   3.958
19255W        W19736   8.077   2.083   6.519
19256W        W19737   9.435   1.481   5.698
19257W        W19738   7.448   2.067   3.691
19258W        W19739   8.183   2.478   6.817
19259W        W19740   7.704   1.645   6.448
19260W        W19741   8.695   1.750   6.242
19261W        W19742  10.463   0.109   6.504
19262W        W19743  10.861   1.719   6.495
19263W        W19744  10.849   1.919   4.181
19264W        W19745   9.712   2.251   4.280
19265W        W19746  10.186   3.551   3.975
19266W        W19747   9.363   1.541   7.117
19267W        W19748   7.693   2.508   7.157
19268W        W19749  10.899   0.430   7.109
19269W        W19750  10.617   1.358   5.730
19270W        W19751   8.925   3.488   7.207
19271W        W19752   8.780   0.117   3.934
19272W        W19753  10.319   2.716   3.877
19273W        W19754   8.088   0.809   6.763
19274W        W19755   8.522   2.803   6.625
19275W        W19756  10.648   0.794   6.423
19276W        W19757   9.859   3.453   4.391
19277W        W19758  10.098   2.072   5.758
19278W        W19759   8.348   0.488   6.425
19279W        W19760   8.817   1.557   7.182
19280W        W19761   8.320   2.736   4.376
19281W        W19762  10.075   2.234   4.640
19282W        W19763   7.843   0.860   6.364
19283W        W19764   9.172   2.922   4.828
19284W        W19765  10.922   1.482   5.009
19285W        W19766   9.144   0.115   6.728
19286W        W19767   9.924   2.820   5.807
19287W        W19768  10.227   3.164   5.515
19288W        W19769   9.446   2.966   3.943
19289W        W19770   8.199   0.850   6.023
19290W        W19771   8.169   0.198   5.133
19291W        W19772   9.790   1.040   5.825
19292W        W19773   8.588   2.211   4.025
19293W        W19774  10.586   2.153   5.524
19294W        W19775   7.913   2.911   6.947
19295W        W19776  10.300   3.593   4.744
19296W        W19777   8.399   0.613   5.189
19297W        W19778   8.168   2.106   5.279
19298W        W19779   8.481   3.517   6.029
19299W        W19780  10.548   3.613   7.061
19300W        W19781   9.707   1.801   5.994
19301W        W19782   7.556   1.599   3.909
19302W        W19783  10.690   3.257   4.606
19303W        W19784  10.527   0.581   4.225
19304W        W19785   8.666   0.100   6.628
19305W        W19786  10.372   2.902   5.086
19306W        W19787  10.401   1.458   4.991
19307W        W19788   8.518   1.131   5.207
19308W        W19789   8.763   1.393   6.531
19309W        W19790   9.874   2.546   6.394
19310W        W19791   8.524   1.000   6.506
19311W        W19792   8.503   3.466   5.122
19312W        W19793   7.820   3.425   6.756
19313W        W19794   7.932   2.786   3.886
19314W        W19795  10.449   2.544   4.696
19315W        W19796   8.053   1.336   6.582
19316W        W19797  10.826   1.266   4.063
19317W        W19798   8.571   2.323   4.534
19318W        W19799   9.670   1.705   6.615
19319W        W19800   9.561   1.333   6.159
19320W        W19801   8.121   1.705   6.188
19321W        W19802  10.331   3.593   6.017
19322W        W19803  10.122   0.227   7.011
19323W        W19804   7.786   0.377   6.598
19324W        W19805   8.125   1.400   5.651
19325W        W19806   8.494   1.214   3.773
19326W        W19807   7.297   2.973   6.318
19327W        W19808   8.882   1.682   5.761
19328W        W19809   8.705   0.707   3.866
19329W        W19810   7.840   1.523   4.647
19330W        W19811   7.611   3.375   6.084
19331W        W19812  10.406   1.601   4.192
19332W        W19813  10.501   0.517   6.878
19333W        W19814   9.937   2.726   4.841
19334W        W19815   7.535   1.650   7.018
19335W        W19816  10.501   0.114   4.314
19336W        W19817  10.021   2.589   4.325
19337W        W19818   8.923   1.647   4.410
19338W        W19819  10.175   1.058   6.119
19339W        W19820   7.884   1.651   5.326
19340W        W19821   8.178   2.590   4.975
19341W        W19822   9.941   1.210   4.940
19342W        W19823   8.964   0.589   5.636
19343W        W19824  10.926   2.500   6.147
19344W        W19825  10.844   0.487   5.708
19345W        W19826   7.383   3.317   5.084
19346W        W19827   7.892   2.504   4.620
19347W        W19828   7.807   0.121   7.173
19348W        W19829   8.926   2.974   7.275
19349W        W19830  10.681   1.942   5.065
19350W        W19831  10.035   2.119   3.945
19351W        W19832   9.330   3.640   6.157
19352W        W19833  10.187   2.362   7.194
19353W        W19834   9.002   0.072   4.474
19354W        W19835   9.715   0.941   5.333
19355W        W19836   7.401   2.528   5.665
19356W        W19837   8.654   0.490   4.306
19357W        W19838   8.458   1.974   7.155
19358W        W19839   9.452   0.955   4.869
19359W        W19840   9.657   2.365   5.991
19360W        W19841   7.811   2.970   6.426
19361W        W19842   8.402   2.953   7.149
19362W        W19843   8.253   0.750   4.163
19363W        W19844   9.770   0.892   4.488
19364W        W19845   9.728   3.000   6.725
19365W        W19846   8.413   1.592   5.324
19366W        W19847   8.068   3.290   6.189
19367W        W19848  10.813   3.407   3.790
19368W        W19849   7.676   2.079   6.786
19369W        W19850   9.671   2.341   5.474
19370W        W19851   8.107   1.990   4.716
19371W        W19852   8.478   2.997   6.111
19372W        W19853   8.856   0.416   5.152
19373W        W19854   7.467   2.400   4.082
19374W        W19855   7.632   1.900   4.971
19375W        W19856   8.922   0.542   6.435
19376W        W19857  10.687   1.997   6.961
19377W        W19858   9.341   3.254   7.113
19378W        W19859  10.899   2.348   6.635
19379W        W19860  10.307   3.146   7.246
19380W        W19861   8.046   3.602   5.724
19381W        W19862  10.905   2.224   4.598
19382W        W19863   9.435   1.491   5.111
19383W        W19864   9.202   0.103   5.001
19384W        W19865   8.760   0.828   6.063
19385W        W19866   8.460   0.197   5.532
19386W        W19867   7.523   3.019   4.080
19387W        W19868   9.339   2.383   4.798
19388W        W19869   8.214   3.178   6.677
19389W        W19870   7.691   2.001   4.373
19390W        W19871   7.576   0.544   5.372
19391W        W19872   9.124   2.509   5.429
19392W        W19873   7.376   0.363   4.449
19393W        W19874  10.040   1.569   6.376
19394W        W19875   9.917   0.955   3.948
19395W        W19876  10.434   2.627   5.596
19396W        W19877   9.095   3.111   5.427
19397W        W19878   8.507   3.215   4.338
19398W        W19879   9.789   0.118   3.768
19399W        W19880   7.589   3.378   5.509
19400W        W19881   9.786   1.136   7.144
19401W        W19882   7.769   0.666   7.143
19402W        W19883   7.500   1.266   4.476
19403W        W19884   8.191   1.255   4.201
19404W        W19885   9.954   1.582   7.018
19405W        W19886   8.297   1.863   5.727
19406W        W19887   9.771   0.149   4.847
19407W        W19888   8.902   3.580   5.350
19408W        W19889  10.116   3.042   6.287
19409W        W19890   9.700   3.191   5.398
19410W        W19891   9.719   2.171   4.992
19411W        W19892   9.181   0.396   4.063
19412W        W19893  10.862   0.024   4.785
19413W        W19894   8.550   1.659   3.948
19414W        W19895  10.716   0.996   4.938
19415W        W19896   9.408   2.166   3.815
19416W        W19897  10.344   2.366   6.563
19417W        W19898   9.998   3.067   4.030
19418W        W19899   8.613   0.742   6.936
19419W        W19900   8.433   1.326   6.177
19420W        W19901  10.525   2.821   6.454
19421W        W19902   9.625   0.771   6.831
19422W        W19903   7.469   1.242   6.608
19423W        W19904   9.229   1.719   6.334
19424W        W19905   7.586   2.477   4.991
19425W        W19906   7.733   1.774   5.881
19426W        W19907  10.050   2.060   6.231
19427W        W19908   9.822   3.440   7.042
19428W        W19909   9.718   1.179   6.595
19429W        W19910   9.995   3.233   5.000
19430W        W19911   8.997   2.953   6.323
19431W        W19912   8.482   3.308   5.592
19432W        W19913  10.287   2.479   6.011
19433W        W19914   9.337   2.551   7.148
19434W        W19915   7.942   2.504   5.487
19435W        W19916  10.288   2.263   5.132
19436W        W19917   9.929   3.329   5.883
19437W        W19918   7.907   3.058   5.753
19438W        W19919   8.928   1.110   6.963
19439W        W19920   9.379   3.276   4.474
19440W        W19921   8.687   2.531   7.112
19441W        W19922   8.813   2.769   4.489
19442W        W19923   8.034   1.509   3.748
19443W        W19924   7.373   3.595  10.648
19444W        W19925   7.749   2.488  10.171
19445W        W19926  10.454   2.218   7.941
19446W        W19927  10.584   3.303   9.968
19447W        W19928   8.502   3.294   7.494
19448W        W19929   8.585   1.446   8.477
19449W        W19930   8.100   1.294   8.641
19450W        W19931   9.091   2.109   8.075
19451W        W19932   8.766   3.201  10.430
19452W        W19933   7.415   0.762  10.393
19453W        W19934   8.177   0.042  10.195
19454W        W19935   9.871   0.430   9.082
19455W        W19936   9.520   1.301   7.652
19456W        W19937  10.090   0.735  10.743
19457W        W19938   7.456   0.527   9.868
19458W        W19939   7.555   3.146  10.889
19459W        W19940   9.077   2.536   7.621
19460W        W19941   7.509   1.319   9.314
19461W        W19942   8.402   1.210  10.551
19462W        W19943  10.861   1.069   9.050
19463W        W19944  10.625   2.112   9.909
19464W        W19945   8.933   1.445   8.936
19465W        W19946   9.479   2.784   9.305
19466W        W19947   7.979   2.218   9.537
19467W        W19948   7.338   1.746   9.108
19468W        W19949   8.374   1.718  10.300
19469W        W19950  10.645   1.501  10.554
19470W        W19951   8.261   2.945   8.999
19471W        W19952   9.382   2.634  10.133
19472W        W19953   8.602   1.274   9.358
19473W        W19954   8.894   2.058   9.001
19474W        W19955   9.891   2.831  10.849
19475W        W19956   8.970   2.151  10.859
19476W        W19957   8.951   1.867  10.337
19477W        W19958   7.360   1.258  10.859
19478W        W19959  10.192   2.793  10.458
19479W        W19960   7.773   0.375   8.456
19480W        W19961   8.300   2.633   9.455
19481W        W19962  10.763   2.416   8.745
19482W        W19963  10.176   0.816   9.312
19483W        W19964  10.461   0.769   7.407
19484W        W19965  10.926   1.570   9.713
19485W        W19966   8.893   3.277   9.466
19486W        W19967  10.667   2.743   7.904
19487W        W19968   7.796   3.529   7.658
19488W        W19969   8.189   3.575   8.334
19489W        W19970   7.986   0.329   9.760
19490W        W19971  10.609   1.347  10.035
19491W        W19972  10.014   1.769   8.494
19492W        W19973   9.980   1.457   7.521
19493W        W19974   9.188   2.601   9.661
19494W        W19975   8.994   0.931   8.860
19495W        W19976   9.594   3.018   9.854
19496W        W19977  10.465   1.809   8.276
19497W        W19978   9.367   0.467   8.292
19498W        W19979   8.024   3.161   7.975
19499W        W19980   7.395   0.660   8.574
19500W        W19981  10.181   1.267   9.048
19501W        W19982   7.639   2.884   8.963
19502W        W19983   8.980   3.234   7.833
19503W        W19984  10.372   1.260   7.297
19504W        W19985   7.395   3.018   9.461
19505W        W19986   8.186   2.590   9.941
19506W        W19987   8.559   1.950   8.560
19507W        W19988   8.581   0.355   9.653
19508W        W19989  10.810   0.117   8.950
19509W        W19990   8.029   1.989   7.418
19510W        W19991   7.684   1.022   7.597
19511W        W19992   7.746   2.978   8.391
19512W        W19993   8.877   2.461   8.639
19513W        W19994  10.209   3.320  10.353
19514W        W19995   9.135   0.962   8.037
19515W        W19996  10.518   3.360   8.809
19516W        W19997  10.195   1.213  10.407
19517W        W19998  10.908   2.869   8.541
19518W        W19999   9.535   2.161  10.025
19519W        W20000   7.301   1.712   8.231
19520W        W20001   8.412   2.127   9.804
19521W        W20002   9.616   1.391   8.182
19522W        W20003   9.493   1.881   8.286
19523W        W20004   7.836   1.301   9.760
19524W        W20005   7.711   0.094   8.841
19525W        W20006   9.479   0.441   9.402
19526W        W20007   9.127   0.626  10.565
19527W        W20008   9.482   0.775   7.743
19528W        W20009  10.665   3.168  10.497
19529W        W20010   9.632   0.249  10.536
19530W        W20011  10.651   2.550  10.658
19531W        W20012  10.081   0.717  10.254
19532W        W20013   9.881   0.655   8.524
19533W        W20014  10.274   1.789  10.928
19534W        W20015   8.014   3.365   8.914
19535W        W20016   8.672   1.082   7.900
19536W        W20017   8.241   0.366  10.564
19537W        W20018  10.293   0.850   8.245
19538W        W20019  10.660   1.332   8.190
19539W        W20020   8.403   3.549  10.661
19540W        W20021   8.329   0.085   7.896
19541W        W20022  10.650   0.619   8.931
19542W        W20023  10.800   2.868   7.376
19543W        W20024   7.707   2.071   9.078
19544W        W20025   9.624   0.658   7.308
19545W        W20026  10.758   2.990   9.028
19546W        W20027  10.797   0.184   9.778
19547W        W20028   9.242   1.396  10.332
19548W        W20029   9.335   2.735   8.035
19549W        W20030   9.735   2.029  10.775
19550W        W20031   9.409   0.006   9.084
19551W        W20032   8.021   0.909   9.147
19552W        W20033   7.575   2.109   9.921
19553W        W20034   9.434   3.302   8.627
19554W        W20035  10.628   0.899   9.499
19555W        W20036   9.265   3.246  10.266
19556W        W20037  10.608   2.305   7.471
19557W        W20038   9.043   1.788   8.532
19558W        W20039  10.895   0.299  10.273
19559W        W20040   9.044   2.134   9.867
19560W        W20041   9.261   1.020   9.312
19561W        W20042  10.113   1.318   8.150
19562W        W20043  10.400   1.051   7.792
19563W        W20044  10.209   3.091   8.181
19564W        W20045  10.043   2.694   8.977
19565W        W20046   9.939   1.773   7.955
19566W        W20047   9.372   1.983   8.941
19567W        W20048  10.253   1.771   9.008
19568W        W20049   7.628   0.786   9.432
19569W        W20050  10.406   1.838  10.259
19570W        W20051  10.757   3.456   9.405
19571W        W20052   8.687   2.900   8.807
19572W        W20053   9.694   3.433  10.131
19573W        W20054   9.688   0.763   9.895
19574W        W20055   8.895   3.471   9.956
19575W        W20056  10.592   0.425   8.422
19576W        W20057  10.383   1.744   9.723
19577W        W20058   7.366   1.065   9.761
19578W        W20059  10.226   0.860   8.779
19579W        W20060  10.637   1.011  10.556
19580W        W20061   9.522   2.710   8.774
19581W        W20062   8.778   3.301   8.387
19582W        W20063   7.893   0.481   7.645
19583W        W20064   8.997   0.135   9.455
19584W        W20065   8.025   3.255   7.303
19585W        W20066   8.399   1.721   8.054
19586W        W20067   9.053   2.350  10.367
19587W        W20068   8.883   0.708   8.357
19588W        W20069  10.239   0.305   8.785
19589W        W20070   9.959   3.587   9.113
19590W        W20071   9.371   3.235   9.453
19591W        W20072   8.767   2.272   9.414
19592W        W20073  10.537   2.995   9.540
19593W        W20074   8.231   0.498   8.309
19594W        W20075   8.753   2.795   9.269
19595W        W20076   8.236   0.726   7.334
19596W        W20077   9.037   1.335   9.728
19597W        W20078   9.885   0.201   9.598
19598W        W20079   7.305   2.044   9.483
19599W        W20080   9.009   1.862   7.641
19600W        W20081   8.277   0.177   7.411
19601W        W20082   9.015   1.258   8.462
19602W        W20083   9.985   0.234  10.161
19603W        W20084   8.573   2.246  10.270
19604W        W20085   9.377   2.028  10.487
19605W        W20086   9.994   2.058  10.380
19606W        W20087   9.278   0.198  10.885
19607W        W20088   8.500   0.814   9.278
19608W        W20089   7.926   0.770   8.676
19609W        W20090   7.712   3.482   8.352
19610W        W20091   9.044   2.812  10.477
19611W        W20092   8.079   2.297   7.836
19612W        W20093   9.759   1.682   9.057
19613W        W20094  10.039   1.481   9.456
19614W        W20095   9.244   2.155   9.390
19615W        W20096   9.714   2.529   7.522
19616W        W20097   9.386   0.550   8.850
19617W        W20098  10.865   0.828   8.118
19618W        W20099   7.359   3.417  10.149
19619W        W20100   7.776   2.643   9.681
19620W        W20101   7.343   3.489   7.913
19621W        W20102   9.242   0.759   9.719
19622W        W20103   8.605   2.782   7.568
19623W        W20104  10.510   3.164   7.754
19624W        W20105   9.485   1.817   7.768
19625W        W20106   8.328   1.008   8.285
19626W        W20107   9.160   0.918   7.337
19627W        W20108   9.744   2.483  10.515
19628W        W20109  10.097   0.389   8.132
19629W        W20110   7.427   0.237   7.580
19630W        W20111   8.713   2.556   9.870
19631W        W20112   8.512   2.472   8.962
19632W        W20113   8.254   2.424   7.360
19633W        W20114   7.495   2.665   8.128
19634W        W20115   7.999   1.735  10.570
19635W        W20116   8.703   0.295  10.756
19636W        W20117   9.412   0.437  10.112
19637W        W20118   8.607   0.205   8.393
19638W        W20119   9.666   0.282   7.898
19639W        W20120   7.611   0.214   9.475
19640W        W20121   7.659   1.177   8.845
19641W        W20122  10.348   0.285   9.251
19642W        W20123   7.770   0.783   8.065
19643W        W20124  10.341   0.471   9.681
19644W        W20125  10.737   1.674   7.366
19645W        W20126   8.029   0.432   9.185
19646W        W20127   9.143   1.004  10.125
19647W        W20128   7.291   0.694   7.603
19648W        W20129   8.077   2.083  10.164
19649W        W20130   9.435   1.481   9.343
19650W        W20131   9.302   3.560   7.639
19651W        W20132   7.448   2.067   7.336
19652W        W20133   8.183   2.478  10.462
19653W        W20134   7.704   1.645  10.093
19654W        W20135   8.695   1.750   9.887
19655W        W20136  10.463   0.109  10.149
19656W        W20137  10.861   1.719  10.140
19657W        W20138  10.849   1.919   7.826
19658W        W20139   9.712   2.251   7.925
19659W        W20140  10.186   3.551   7.620
19660W        W20141   9.363   1.541  10.762
19661W        W20142   7.693   2.508  10.802
19662W        W20143  10.899   0.430  10.754
19663W        W20144  10.617   1.358   9.375
19664W        W20145   8.925   3.488  10.852
19665W        W20146   8.780   0.117   7.579
19666W        W20147  10.319   2.716   7.522
19667W        W20148   8.088   0.809  10.408
19668W        W20149   8.522   2.803  10.270
19669W        W20150  10.648   0.794  10.068
19670W        W20151   9.859   3.453   8.036
19671W        W20152  10.098   2.072   9.403
19672W        W20153   8.348   0.488  10.070
19673W        W20154   8.817   1.557  10.827
19674W        W20155   8.320   2.736   8.021
19675W        W20156  10.075   2.234   8.285
19676W        W20157   7.843   0.860  10.009
19677W        W20158   9.172   2.922   8.473
19678W        W20159  10.922   1.482   8.654
19679W        W20160   9.144   0.115  10.373
19680W        W20161   9.924   2.820   9.452
19681W        W20162  10.227   3.164   9.160
19682W        W20163   9.446   2.966   7.588
19683W        W20164   7.456   2.858  10.430
19684W        W20165   8.199   0.850   9.668
19685W        W20166   8.169   0.198   8.778
19686W        W20167   9.790   1.040   9.470
19687W        W20168   8.588   2.211   7.670
19688W        W20169  10.586   2.153   9.169
19689W        W20170   7.913   2.911  10.592
19690W        W20171  10.300   3.593   8.389
19691W        W20172   8.399   0.613   8.834
19692W        W20173   8.168   2.106   8.924
19693W        W20174   8.481   3.517   9.674
19694W        W20175  10.548   3.613  10.706
19695W        W20176   9.707   1.801   9.639
19696W        W20177   7.556   1.599   7.554
19697W        W20178  10.690   3.257   8.251
19698W        W20179   8.666   0.100  10.273
19699W        W20180  10.401   1.458   8.636
19700W        W20181   8.518   1.131   8.852
19701W        W20182   8.763   1.393  10.176
19702W        W20183   9.874   2.546  10.039
19703W        W20184   8.524   1.000  10.151
19704W        W20185   8.503   3.466   8.767
19705W        W20186   7.820   3.425  10.401
19706W        W20187   7.932   2.786   7.531
19707W        W20188  10.449   2.544   8.341
19708W        W20189   8.053   1.336  10.227
19709W        W20190  10.826   1.266   7.708
19710W        W20191   8.571   2.323   8.179
19711W        W20192   9.670   1.705  10.260
19712W        W20193   9.561   1.333   9.804
19713W        W20194   8.121   1.705   9.833
19714W        W20195  10.331   3.593   9.662
19715W        W20196  10.122   0.227  10.656
19716W        W20197   7.786   0.377  10.243
19717W        W20198   8.125   1.400   9.296
19718W        W20199   8.494   1.214   7.418
19719W        W20200   7.297   2.973   9.963
19720W        W20201   8.882   1.682   9.406
19721W        W20202   8.705   0.707   7.511
19722W        W20203   7.840   1.523   8.292
19723W        W20204   7.611   3.375   9.729
19724W        W20205  10.406   1.601   7.837
19725W        W20206  10.501   0.517  10.523
19726W        W20207   9.937   2.726   8.486
19727W        W20208   7.535   1.650  10.663
19728W        W20209  10.501   0.114   7.959
19729W        W20210  10.021   2.589   7.970
19730W        W20211   8.923   1.647   8.055
19731W        W20212  10.110   0.451   7.578
19732W        W20213  10.175   1.058   9.764
19733W        W20214   7.884   1.651   8.971
19734W        W20215   8.178   2.590   8.620
19735W        W20216   9.941   1.210   8.585
19736W        W20217   8.964   0.589   9.281
19737W        W20218  10.926   2.500   9.792
19738W        W20219  10.844   0.487   9.353
19739W        W20220   7.383   3.317   8.729
19740W        W20221   7.892   2.504   8.265
19741W        W20222   7.807   0.121  10.818
19742W        W20223   8.926   2.974  10.920
19743W        W20224  10.681   1.942   8.710
19744W        W20225  10.035   2.119   7.590
19745W        W20226   9.330   3.640   9.802
19746W        W20227  10.187   2.362  10.839
19747W        W20228   9.002   0.072   8.119
19748W        W20229   9.715   0.941   8.978
19749W        W20230   7.401   2.528   9.310
19750W        W20231   8.654   0.490   7.951
19751W        W20232   8.458   1.974  10.800
19752W        W20233   9.452   0.955   8.514
19753W        W20234   9.657   2.365   9.636
19754W        W20235   7.811   2.970  10.071
19755W        W20236   8.402   2.953  10.794
19756W        W20237   8.253   0.750   7.808
19757W        W20238   9.770   0.892   8.133
19758W        W20239   9.728   3.000  10.370
19759W        W20240   8.413   1.592   8.969
19760W        W20241   8.068   3.290   9.834
19761W        W20242  10.813   3.407   7.435
19762W        W20243   7.676   2.079  10.431
19763W        W20244   9.671   2.341   9.119
19764W        W20245   8.107   1.990   8.361
19765W        W20246   8.478   2.997   9.756
19766W        W20247   8.856   0.416   8.797
19767W        W20248   7.467   2.400   7.727
19768W        W20249   8.986   1.351   7.597
19769W        W20250   7.632   1.900   8.616
19770W        W20251   8.922   0.542  10.080
19771W        W20252  10.594   0.251   7.507
19772W        W20253  10.687   1.997  10.606
19773W        W20254   9.341   3.254  10.758
19774W        W20255  10.899   2.348  10.280
19775W        W20256  10.307   3.146  10.891
19776W        W20257   8.046   3.602   9.369
19777W        W20258  10.905   2.224   8.243
19778W        W20259   9.435   1.491   8.756
19779W        W20260   9.202   0.103   8.646
19780W        W20261   8.261   3.087   8.483
19781W        W20262   8.760   0.828   9.708
19782W        W20263   8.460   0.197   9.177
19783W        W20264   7.523   3.019   7.725
19784W        W20265   9.339   2.383   8.443
19785W        W20266   8.214   3.178  10.322
19786W        W20267   7.691   2.001   8.018
19787W        W20268   7.576   0.544   9.017
19788W        W20269   9.124   2.509   9.074
19789W        W20270   7.376   0.363   8.094
19790W        W20271  10.040   1.569  10.021
19791W        W20272   9.917   0.955   7.593
19792W        W20273  10.434   2.627   9.241
19793W        W20274   9.095   3.111   9.072
19794W        W20275   8.507   3.215   7.983
19795W        W20276   9.789   0.118   7.413
19796W        W20277   7.589   3.378   9.154
19797W        W20278   9.786   1.136  10.789
19798W        W20279   7.769   0.666  10.788
19799W        W20280   7.500   1.266   8.121
19800W        W20281   8.191   1.255   7.846
19801W        W20282   9.954   1.582  10.663
19802W        W20283   8.297   1.863   9.372
19803W        W20284   9.771   0.149   8.492
19804W        W20285   8.902   3.580   8.995
19805W        W20286   9.700   3.191   9.043
19806W        W20287   9.719   2.171   8.637
19807W        W20288   9.181   0.396   7.708
19808W        W20289  10.862   0.024   8.430
19809W        W20290   8.550   1.659   7.593
19810W        W20291  10.716   0.996   8.583
19811W        W20292   9.408   2.166   7.460
19812W        W20293  10.344   2.366  10.208
19813W        W20294   9.998   3.067   7.675
19814W        W20295   8.613   0.742  10.581
19815W        W20296   8.433   1.326   9.822
19816W        W20297  10.525   2.821  10.099
19817W        W20298   9.625   0.771  10.476
19818W        W20299   7.469   1.242  10.253
19819W        W20300   9.229   1.719   9.979
19820W        W20301   7.586   2.477   8.636
19821W        W20302   7.733   1.774   9.526
19822W        W20303  10.050   2.060   9.876
19823W        W20304   9.822   3.440  10.687
19824W        W20305   9.718   1.179  10.240
19825W        W20306   9.995   3.233   8.645
19826W        W20307   8.997   2.953   9.968
19827W        W20308   8.482   3.308   9.237
19828W        W20309  10.287   2.479   9.656
19829W        W20310   9.337   2.551  10.793
19830W        W20311   7.942   2.504   9.132
19831W        W20312  10.288   2.263   8.777
19832W        W20313   9.929   3.329   9.528
19833W        W20314   7.907   3.058   9.398
19834W        W20315   8.928   1.110  10.608
19835W        W20316   9.379   3.276   8.119
19836W        W20317   8.687   2.531  10.757
19837W        W20318   8.813   2.769   8.134
19838W        W20319   8.034   1.509   7.393
19839W        W20320   7.373   3.595  14.292
19840W        W20321   7.749   2.488  13.815
19841W        W20322  10.454   2.218  11.585
19842W        W20323  10.584   3.303  13.612
19843W        W20324   8.502   3.294  11.138
19844W        W20325   8.585   1.446  12.121
19845W        W20326   9.091   2.109  11.719
19846W        W20327   8.766   3.201  14.074
19847W        W20328   7.415   0.762  14.037
19848W        W20329   8.177   0.042  13.839
19849W        W20330   9.871   0.430  12.726
19850W        W20331   9.520   1.301  11.296
19851W        W20332  10.090   0.735  14.387
19852W        W20333   7.456   0.527  13.512
19853W        W20334   7.555   3.146  14.533
19854W        W20335   9.077   2.536  11.265
19855W        W20336   7.509   1.319  12.958
19856W        W20337   8.402   1.210  14.195
19857W        W20338  10.861   1.069  12.694
19858W        W20339  10.625   2.112  13.553
19859W        W20340   8.933   1.445  12.580
19860W        W20341   9.479   2.784  12.949
19861W        W20342   7.979   2.218  13.181
19862W        W20343   7.338   1.746  12.752
19863W        W20344   8.374   1.718  13.944
19864W        W20345  10.645   1.501  14.198
19865W        W20346   8.261   2.945  12.643
19866W        W20347   9.382   2.634  13.777
19867W        W20348   8.602   1.274  13.002
19868W        W20349   9.891   2.831  14.493
19869W        W20350   8.970   2.151  14.503
19870W        W20351   8.951   1.867  13.981
19871W        W20352   7.360   1.258  14.503
19872W        W20353  10.192   2.793  14.102
19873W        W20354   7.773   0.375  12.100
19874W        W20355   8.300   2.633  13.099
19875W        W20356  10.763   2.416  12.389
19876W        W20357  10.176   0.816  12.956
19877W        W20358  10.461   0.769  11.051
19878W        W20359  10.926   1.570  13.357
19879W        W20360   8.893   3.277  13.110
19880W        W20361  10.667   2.743  11.548
19881W        W20362   7.796   3.529  11.302
19882W        W20363   8.189   3.575  11.978
19883W        W20364   7.986   0.329  13.404
19884W        W20365  10.609   1.347  13.679
19885W        W20366  10.014   1.769  12.138
19886W        W20367   9.980   1.457  11.165
19887W        W20368   9.188   2.601  13.305
19888W        W20369   8.994   0.931  12.504
19889W        W20370   9.594   3.018  13.498
19890W        W20371  10.465   1.809  11.920
19891W        W20372   9.367   0.467  11.936
19892W        W20373   8.024   3.161  11.619
19893W        W20374   7.395   0.660  12.218
19894W        W20375  10.181   1.267  12.692
19895W        W20376   7.639   2.884  12.607
19896W        W20377   8.980   3.234  11.477
19897W        W20378  10.372   1.260  10.941
19898W        W20379   7.395   3.018  13.105
19899W        W20380   8.186   2.590  13.585
19900W        W20381   8.559   1.950  12.204
19901W        W20382   8.581   0.355  13.297
19902W        W20383  10.810   0.117  12.594
19903W        W20384   8.029   1.989  11.062
19904W        W20385   7.684   1.022  11.241
19905W        W20386   7.746   2.978  12.035
19906W        W20387   8.877   2.461  12.283
19907W        W20388  10.209   3.320  13.997
19908W        W20389   9.135   0.962  11.681
19909W        W20390  10.518   3.360  12.453
19910W        W20391  10.195   1.213  14.051
19911W        W20392  10.908   2.869  12.185
19912W        W20393   9.535   2.161  13.669
19913W        W20394   7.301   1.712  11.875
19914W        W20395   8.412   2.127  13.448
19915W        W20396   9.616   1.391  11.826
19916W        W20397   9.493   1.881  11.930
19917W        W20398   7.836   1.301  13.404
19918W        W20399   7.821   1.177  14.326
19919W        W20400   9.479   0.441  13.046
19920W        W20401   9.127   0.626  14.209
19921W        W20402   9.482   0.775  11.387
19922W        W20403  10.665   3.168  14.141
19923W        W20404   9.632   0.249  14.180
19924W        W20405  10.651   2.550  14.302
19925W        W20406  10.081   0.717  13.898
19926W        W20407   9.881   0.655  12.168
19927W        W20408  10.274   1.789  14.572
19928W        W20409   8.014   3.365  12.558
19929W        W20410   8.672   1.082  11.544
19930W        W20411   8.241   0.366  14.208
19931W        W20412  10.293   0.850  11.889
19932W        W20413  10.660   1.332  11.834
19933W        W20414   8.403   3.549  14.305
19934W        W20415   8.329   0.085  11.540
19935W        W20416  10.650   0.619  12.575
19936W        W20417  10.800   2.868  11.020
19937W        W20418   7.707   2.071  12.722
19938W        W20419   9.624   0.658  10.952
19939W        W20420  10.758   2.990  12.672
19940W        W20421  10.797   0.184  13.422
19941W        W20422   9.242   1.396  13.976
19942W        W20423   9.335   2.735  11.679
19943W        W20424   9.735   2.029  14.419
19944W        W20425   9.409   0.006  12.728
19945W        W20426   8.021   0.909  12.791
19946W        W20427   7.575   2.109  13.565
19947W        W20428   9.434   3.302  12.271
19948W        W20429  10.628   0.899  13.143
19949W        W20430   9.265   3.246  13.910
19950W        W20431  10.608   2.305  11.115
19951W        W20432   9.043   1.788  12.176
19952W        W20433  10.895   0.299  13.917
19953W        W20434   9.044   2.134  13.511
19954W        W20435   9.261   1.020  12.956
19955W        W20436  10.113   1.318  11.794
19956W        W20437  10.400   1.051  11.436
19957W        W20438  10.209   3.091  11.825
19958W        W20439  10.043   2.694  12.621
19959W        W20440   9.939   1.773  11.599
19960W        W20441   9.372   1.983  12.585
19961W        W20442  10.253   1.771  12.652
19962W        W20443   7.628   0.786  13.076
19963W        W20444  10.406   1.838  13.903
19964W        W20445  10.757   3.456  13.049
19965W        W20446   8.687   2.900  12.451
19966W        W20447   9.694   3.433  13.775
19967W        W20448   9.688   0.763  13.539
19968W        W20449   8.895   3.471  13.600
19969W        W20450  10.383   1.744  13.367
19970W        W20451   7.366   1.065  13.405
19971W        W20452  10.226   0.860  12.423
19972W        W20453  10.637   1.011  14.200
19973W        W20454   9.522   2.710  12.418
19974W        W20455   7.893   0.481  11.289
19975W        W20456   8.997   0.135  13.099
19976W        W20457   8.025   3.255  10.947
19977W        W20458   8.399   1.721  11.698
19978W        W20459   9.053   2.350  14.011
19979W        W20460   8.883   0.708  12.001
19980W        W20461  10.239   0.305  12.429
19981W        W20462   9.959   3.587  12.757
19982W        W20463   9.371   3.235  13.097
19983W        W20464   8.767   2.272  13.058
19984W        W20465  10.537   2.995  13.184
19985W        W20466   8.231   0.498  11.953
19986W        W20467   8.753   2.795  12.913
19987W        W20468   8.236   0.726  10.978
19988W        W20469   9.037   1.335  13.372
19989W        W20470   9.885   0.201  13.242
19990W        W20471   7.305   2.044  13.127
19991W        W20472   9.009   1.862  11.285
19992W        W20473   8.277   0.177  11.055
19993W        W20474   9.015   1.258  12.106
19994W        W20475   9.985   0.234  13.805
19995W        W20476   8.573   2.246  13.914
19996W        W20477   9.377   2.028  14.131
19997W        W20478   9.994   2.058  14.024
19998W        W20479   9.278   0.198  14.529
19999W        W20480   8.500   0.814  12.922
20000W        W20481   7.926   0.770  12.320
20001W        W20482   7.712   3.482  11.996
20002W        W20483   9.044   2.812  14.121
20003W        W20484   8.079   2.297  11.480
20004W        W20485   9.759   1.682  12.701
20005W        W20486  10.039   1.481  13.100
20006W        W20487   9.244   2.155  13.034
20007W        W20488   9.714   2.529  11.166
20008W        W20489   9.386   0.550  12.494
20009W        W20490  10.865   0.828  11.762
20010W        W20491   7.359   3.417  13.793
20011W        W20492   7.776   2.643  13.325
20012W        W20493   7.343   3.489  11.557
20013W        W20494   9.242   0.759  13.363
20014W        W20495   8.605   2.782  11.212
20015W        W20496  10.510   3.164  11.398
20016W        W20497   9.485   1.817  11.412
20017W        W20498   8.328   1.008  11.929
20018W        W20499   9.160   0.918  10.981
20019W        W20500   9.744   2.483  14.159
20020W        W20501  10.097   0.389  11.776
20021W        W20502   7.427   0.237  11.224
20022W        W20503   8.713   2.556  13.514
20023W        W20504   8.512   2.472  12.606
20024W        W20505   8.254   2.424  11.004
20025W        W20506   7.495   2.665  11.772
20026W        W20507   7.999   1.735  14.214
20027W        W20508   8.703   0.295  14.400
20028W        W20509   9.412   0.437  13.756
20029W        W20510   8.607   0.205  12.037
20030W        W20511   9.666   0.282  11.542
20031W        W20512   7.611   0.214  13.119
20032W        W20513   7.659   1.177  12.489
20033W        W20514  10.348   0.285  12.895
20034W        W20515   7.770   0.783  11.709
20035W        W20516  10.341   0.471  13.325
20036W        W20517  10.737   1.674  11.010
20037W        W20518   8.029   0.432  12.829
20038W        W20519   9.143   1.004  13.769
20039W        W20520   7.291   0.694  11.247
20040W        W20521   8.077   2.083  13.808
20041W        W20522   9.435   1.481  12.987
20042W        W20523   9.302   3.560  11.283
20043W        W20524   7.448   2.067  10.980
20044W        W20525   8.183   2.478  14.106
20045W        W20526   7.704   1.645  13.737
20046W        W20527   8.695   1.750  13.531
20047W        W20528  10.463   0.109  13.793
20048W        W20529  10.861   1.719  13.784
20049W        W20530  10.849   1.919  11.470
20050W        W20531   9.712   2.251  11.569
20051W        W20532  10.186   3.551  11.264
20052W        W20533   9.363   1.541  14.406
20053W        W20534   7.693   2.508  14.446
20054W        W20535  10.899   0.430  14.398
20055W        W20536  10.617   1.358  13.019
20056W        W20537   8.925   3.488  14.496
20057W        W20538   8.780   0.117  11.223
20058W        W20539   8.088   0.809  14.052
20059W        W20540   8.522   2.803  13.914
20060W        W20541  10.648   0.794  13.712
20061W        W20542   9.859   3.453  11.680
20062W        W20543  10.098   2.072  13.047
20063W        W20544   8.348   0.488  13.714
20064W        W20545   8.817   1.557  14.471
20065W        W20546   8.320   2.736  11.665
20066W        W20547  10.075   2.234  11.929
20067W        W20548   7.843   0.860  13.653
20068W        W20549   9.172   2.922  12.117
20069W        W20550  10.922   1.482  12.298
20070W        W20551   9.144   0.115  14.017
20071W        W20552   9.924   2.820  13.096
20072W        W20553  10.227   3.164  12.804
20073W        W20554   9.446   2.966  11.232
20074W        W20555   7.456   2.858  14.074
20075W        W20556   8.199   0.850  13.312
20076W        W20557   8.169   0.198  12.422
20077W        W20558   9.790   1.040  13.114
20078W        W20559   8.588   2.211  11.314
20079W        W20560  10.586   2.153  12.813
20080W        W20561   7.913   2.911  14.236
20081W        W20562  10.300   3.593  12.033
20082W        W20563   8.399   0.613  12.478
20083W        W20564   8.168   2.106  12.568
20084W        W20565   8.481   3.517  13.318
20085W        W20566  10.548   3.613  14.350
20086W        W20567   9.707   1.801  13.283
20087W        W20568   7.556   1.599  11.198
20088W        W20569  10.690   3.257  11.895
20089W        W20570  10.527   0.581  11.514
20090W        W20571   8.666   0.100  13.917
20091W        W20572  10.372   2.902  12.375
20092W        W20573  10.401   1.458  12.280
20093W        W20574   8.518   1.131  12.496
20094W        W20575   8.763   1.393  13.820
20095W        W20576   9.874   2.546  13.683
20096W        W20577   8.524   1.000  13.795
20097W        W20578   8.503   3.466  12.411
20098W        W20579   7.820   3.425  14.045
20099W        W20580   7.932   2.786  11.175
20100W        W20581  10.449   2.544  11.985
20101W        W20582   8.053   1.336  13.871
20102W        W20583  10.826   1.266  11.352
20103W        W20584   8.571   2.323  11.823
20104W        W20585   9.670   1.705  13.904
20105W        W20586   9.561   1.333  13.448
20106W        W20587   8.121   1.705  13.477
20107W        W20588  10.331   3.593  13.306
20108W        W20589  10.122   0.227  14.300
20109W        W20590   7.786   0.377  13.887
20110W        W20591   8.125   1.400  12.940
20111W        W20592   8.494   1.214  11.062
20112W        W20593   7.297   2.973  13.607
20113W        W20594   8.882   1.682  13.050
20114W        W20595   8.705   0.707  11.155
20115W        W20596   7.840   1.523  11.936
20116W        W20597   7.611   3.375  13.373
20117W        W20598  10.501   0.517  14.167
20118W        W20599   9.937   2.726  12.130
20119W        W20600   7.535   1.650  14.307
20120W        W20601  10.501   0.114  11.603
20121W        W20602  10.021   2.589  11.614
20122W        W20603   8.923   1.647  11.699
20123W        W20604  10.110   0.451  11.222
20124W        W20605  10.175   1.058  13.408
20125W        W20606   7.884   1.651  12.615
20126W        W20607   8.178   2.590  12.264
20127W        W20608   9.941   1.210  12.229
20128W        W20609   8.964   0.589  12.925
20129W        W20610  10.926   2.500  13.436
20130W        W20611  10.844   0.487  12.997
20131W        W20612   7.383   3.317  12.373
20132W        W20613   7.892   2.504  11.909
20133W        W20614   7.807   0.121  14.462
20134W        W20615   8.926   2.974  14.564
20135W        W20616  10.681   1.942  12.354
20136W        W20617  10.035   2.119  11.234
20137W        W20618   9.330   3.640  13.446
20138W        W20619  10.187   2.362  14.483
20139W        W20620   9.002   0.072  11.763
20140W        W20621   9.715   0.941  12.622
20141W        W20622   7.401   2.528  12.954
20142W        W20623   8.654   0.490  11.595
20143W        W20624   8.458   1.974  14.444
20144W        W20625   9.452   0.955  12.158
20145W        W20626   9.657   2.365  13.280
20146W        W20627   7.811   2.970  13.715
20147W        W20628   8.402   2.953  14.438
20148W        W20629   8.253   0.750  11.452
20149W        W20630   9.770   0.892  11.777
20150W        W20631   9.728   3.000  14.014
20151W        W20632   8.413   1.592  12.613
20152W        W20633   8.068   3.290  13.478
20153W        W20634  10.813   3.407  11.079
20154W        W20635   7.676   2.079  14.075
20155W        W20636   9.671   2.341  12.763
20156W        W20637   8.107   1.990  12.005
20157W        W20638   8.478   2.997  13.400
20158W        W20639   8.856   0.416  12.441
20159W        W20640   7.467   2.400  11.371
20160W        W20641   8.986   1.351  11.241
20161W        W20642   7.632   1.900  12.260
20162W        W20643   8.922   0.542  13.724
20163W        W20644  10.594   0.251  11.151
20164W        W20645  10.687   1.997  14.250
20165W        W20646   9.341   3.254  14.402
20166W        W20647  10.899   2.348  13.924
20167W        W20648  10.307   3.146  14.535
20168W        W20649   8.046   3.602  13.013
20169W        W20650  10.905   2.224  11.887
20170W        W20651   9.435   1.491  12.400
20171W        W20652   9.202   0.103  12.290
20172W        W20653   8.261   3.087  12.127
20173W        W20654   8.760   0.828  13.352
20174W        W20655   8.460   0.197  12.821
20175W        W20656   7.523   3.019  11.369
20176W        W20657   9.339   2.383  12.087
20177W        W20658   8.214   3.178  13.966
20178W        W20659   7.691   2.001  11.662
20179W        W20660   7.576   0.544  12.661
20180W        W20661   9.124   2.509  12.718
20181W        W20662   7.376   0.363  11.738
20182W        W20663  10.040   1.569  13.665
20183W        W20664   9.917   0.955  11.237
20184W        W20665  10.434   2.627  12.885
20185W        W20666   9.095   3.111  12.716
20186W        W20667   8.507   3.215  11.627
20187W        W20668   9.789   0.118  11.057
20188W        W20669   7.589   3.378  12.798
20189W        W20670   9.786   1.136  14.433
20190W        W20671   7.769   0.666  14.432
20191W        W20672   7.500   1.266  11.765
20192W        W20673   8.191   1.255  11.490
20193W        W20674   9.954   1.582  14.307
20194W        W20675   8.297   1.863  13.016
20195W        W20676   9.771   0.149  12.136
20196W        W20677   8.902   3.580  12.639
20197W        W20678  10.116   3.042  13.576
20198W        W20679   9.700   3.191  12.687
20199W        W20680   9.719   2.171  12.281
20200W        W20681   9.181   0.396  11.352
20201W        W20682  10.862   0.024  12.074
20202W        W20683   8.550   1.659  11.237
20203W        W20684  10.716   0.996  12.227
20204W        W20685   9.408   2.166  11.104
20205W        W20686  10.344   2.366  13.852
20206W        W20687   9.998   3.067  11.319
20207W        W20688   8.613   0.742  14.225
20208W        W20689   8.433   1.326  13.466
20209W        W20690  10.525   2.821  13.743
20210W        W20691   9.625   0.771  14.120
20211W        W20692   7.469   1.242  13.897
20212W        W20693   9.229   1.719  13.623
20213W        W20694   7.586   2.477  12.280
20214W        W20695   7.733   1.774  13.170
20215W        W20696  10.050   2.060  13.520
20216W        W20697   9.822   3.440  14.331
20217W        W20698   9.718   1.179  13.884
20218W        W20699   9.995   3.233  12.289
20219W        W20700   8.997   2.953  13.612
20220W        W20701   8.482   3.308  12.881
20221W        W20702  10.287   2.479  13.300
20222W        W20703   9.337   2.551  14.437
20223W        W20704   7.942   2.504  12.776
20224W        W20705  10.288   2.263  12.421
20225W        W20706   9.929   3.329  13.172
20226W        W20707   7.907   3.058  13.042
20227W        W20708   8.928   1.110  14.252
20228W        W20709   9.379   3.276  11.763
20229W        W20710   8.687   2.531  14.401
20230W        W20711   8.813   2.769  11.778
20231W        W20712   8.034   1.509  11.037
20232W        W20713   7.749   2.488  17.459
20233W        W20714  10.454   2.218  15.229
20234W        W20715  10.584   3.303  17.256
20235W        W20716   8.502   3.294  14.782
20236W        W20717   8.585   1.446  15.765
20237W        W20718   8.100   1.294  15.929
20238W        W20719   9.091   2.109  15.363
20239W        W20720   8.766   3.201  17.718
20240W        W20721   7.415   0.762  17.681
20241W        W20722   8.177   0.042  17.483
20242W        W20723   9.871   0.430  16.370
20243W        W20724   9.520   1.301  14.940
20244W        W20725   7.456   0.527  17.156
20245W        W20726   9.077   2.536  14.909
20246W        W20727   7.509   1.319  16.602
20247W        W20728  10.861   1.069  16.338
20248W        W20729  10.625   2.112  17.197
20249W        W20730   8.933   1.445  16.224
20250W        W20731   9.479   2.784  16.593
20251W        W20732   7.979   2.218  16.825
20252W        W20733   7.338   1.746  16.396
20253W        W20734   8.374   1.718  17.588
20254W        W20735   8.261   2.945  16.287
20255W        W20736   9.382   2.634  17.421
20256W        W20737   8.602   1.274  16.646
20257W        W20738   8.894   2.058  16.289
20258W        W20739   8.951   1.867  17.625
20259W        W20740  10.192   2.793  17.746
20260W        W20741   7.773   0.375  15.744
20261W        W20742   8.300   2.633  16.743
20262W        W20743  10.763   2.416  16.033
20263W        W20744  10.176   0.816  16.600
20264W        W20745  10.461   0.769  14.695
20265W        W20746  10.926   1.570  17.001
20266W        W20747   8.893   3.277  16.754
20267W        W20748  10.667   2.743  15.192
20268W        W20749   7.796   3.529  14.946
20269W        W20750   7.986   0.329  17.048
20270W        W20751  10.609   1.347  17.323
20271W        W20752  10.014   1.769  15.782
20272W        W20753   9.980   1.457  14.809
20273W        W20754   9.188   2.601  16.949
20274W        W20755   8.994   0.931  16.148
20275W        W20756   9.594   3.018  17.142
20276W        W20757  10.465   1.809  15.564
20277W        W20758   9.367   0.467  15.580
20278W        W20759   8.024   3.161  15.263
20279W        W20760   7.395   0.660  15.862
20280W        W20761  10.181   1.267  16.336
20281W        W20762   7.639   2.884  16.251
20282W        W20763   8.980   3.234  15.121
20283W        W20764  10.372   1.260  14.585
20284W        W20765   7.395   3.018  16.749
20285W        W20766   8.186   2.590  17.229
20286W        W20767   8.559   1.950  15.848
20287W        W20768   8.581   0.355  16.941
20288W        W20769  10.810   0.117  16.238
20289W        W20770   8.029   1.989  14.706
20290W        W20771   7.684   1.022  14.885
20291W        W20772   7.746   2.978  15.679
20292W        W20773   8.877   2.461  15.927
20293W        W20774  10.209   3.320  17.641
20294W        W20775   9.135   0.962  15.325
20295W        W20776  10.518   3.360  16.097
20296W        W20777  10.908   2.869  15.829
20297W        W20778   9.535   2.161  17.313
20298W        W20779   7.301   1.712  15.519
20299W        W20780   8.412   2.127  17.092
20300W        W20781   9.616   1.391  15.470
20301W        W20782   9.493   1.881  15.574
20302W        W20783   7.836   1.301  17.048
20303W        W20784   7.711   0.094  16.129
20304W        W20785   9.479   0.441  16.690
20305W        W20786   9.482   0.775  15.031
20306W        W20787  10.665   3.168  17.785
20307W        W20788  10.081   0.717  17.542
20308W        W20789   8.014   3.365  16.202
20309W        W20790   8.672   1.082  15.188
20310W        W20791  10.293   0.850  15.533
20311W        W20792  10.660   1.332  15.478
20312W        W20793   8.329   0.085  15.184
20313W        W20794  10.650   0.619  16.219
20314W        W20795  10.800   2.868  14.664
20315W        W20796   7.707   2.071  16.366
20316W        W20797   9.624   0.658  14.596
20317W        W20798  10.758   2.990  16.316
20318W        W20799  10.797   0.184  17.066
20319W        W20800   9.242   1.396  17.620
20320W        W20801   9.335   2.735  15.323
20321W        W20802   9.409   0.006  16.372
20322W        W20803   8.021   0.909  16.435
20323W        W20804   7.575   2.109  17.209
20324W        W20805   9.434   3.302  15.915
20325W        W20806  10.628   0.899  16.787
20326W        W20807   9.265   3.246  17.554
20327W        W20808  10.608   2.305  14.759
20328W        W20809   9.043   1.788  15.820
20329W        W20810  10.895   0.299  17.561
20330W        W20811   9.044   2.134  17.155
20331W        W20812   9.261   1.020  16.600
20332W        W20813  10.113   1.318  15.438
20333W        W20814  10.400   1.051  15.080
20334W        W20815  10.209   3.091  15.469
20335W        W20816  10.043   2.694  16.265
20336W        W20817   9.939   1.773  15.243
20337W        W20818   9.372   1.983  16.229
20338W        W20819  10.253   1.771  16.296
20339W        W20820   7.628   0.786  16.720
20340W        W20821  10.406   1.838  17.547
20341W        W20822  10.757   3.456  16.693
20342W        W20823   8.687   2.900  16.095
20343W        W20824   9.694   3.433  17.419
20344W        W20825   9.688   0.763  17.183
20345W        W20826   8.895   3.471  17.244
20346W        W20827  10.592   0.425  15.710
20347W        W20828  10.383   1.744  17.011
20348W        W20829   7.366   1.065  17.049
20349W        W20830  10.226   0.860  16.067
20350W        W20831   9.522   2.710  16.062
20351W        W20832   8.778   3.301  15.675
20352W        W20833   7.893   0.481  14.933
20353W        W20834   8.997   0.135  16.743
20354W        W20835   8.025   3.255  14.591
20355W        W20836   8.399   1.721  15.342
20356W        W20837   9.053   2.350  17.655
20357W        W20838   8.883   0.708  15.645
20358W        W20839  10.239   0.305  16.073
20359W        W20840   9.959   3.587  16.401
20360W        W20841   9.371   3.235  16.741
20361W        W20842   8.767   2.272  16.702
20362W        W20843  10.537   2.995  16.828
20363W        W20844   8.231   0.498  15.597
20364W        W20845   8.753   2.795  16.557
20365W        W20846   8.236   0.726  14.622
20366W        W20847   9.037   1.335  17.016
20367W        W20848   9.885   0.201  16.886
20368W        W20849   7.305   2.044  16.771
20369W        W20850   9.009   1.862  14.929
20370W        W20851   8.277   0.177  14.699
20371W        W20852   9.015   1.258  15.750
20372W        W20853   9.985   0.234  17.449
20373W        W20854   8.573   2.246  17.558
20374W        W20855   9.994   2.058  17.668
20375W        W20856   8.500   0.814  16.566
20376W        W20857   7.926   0.770  15.964
20377W        W20858   7.712   3.482  15.640
20378W        W20859   9.044   2.812  17.765
20379W        W20860   8.079   2.297  15.124
20380W        W20861   9.759   1.682  16.345
20381W        W20862  10.039   1.481  16.744
20382W        W20863   9.244   2.155  16.678
20383W        W20864   9.714   2.529  14.810
20384W        W20865   9.386   0.550  16.138
20385W        W20866  10.865   0.828  15.406
20386W        W20867   7.359   3.417  17.437
20387W        W20868   7.776   2.643  16.969
20388W        W20869   7.343   3.489  15.201
20389W        W20870   9.242   0.759  17.007
20390W        W20871   8.605   2.782  14.856
20391W        W20872  10.510   3.164  15.042
20392W        W20873   9.485   1.817  15.056
20393W        W20874   8.328   1.008  15.573
20394W        W20875   9.160   0.918  14.625
20395W        W20876  10.097   0.389  15.420
20396W        W20877   7.427   0.237  14.868
20397W        W20878   8.713   2.556  17.158
20398W        W20879   8.512   2.472  16.250
20399W        W20880   8.254   2.424  14.648
20400W        W20881   7.495   2.665  15.416
20401W        W20882   9.412   0.437  17.400
20402W        W20883   8.607   0.205  15.681
20403W        W20884   9.666   0.282  15.186
20404W        W20885   7.611   0.214  16.763
20405W        W20886   7.659   1.177  16.133
20406W        W20887  10.348   0.285  16.539
20407W        W20888   7.770   0.783  15.353
20408W        W20889  10.341   0.471  16.969
20409W        W20890  10.737   1.674  14.654
20410W        W20891   8.029   0.432  16.473
20411W        W20892   9.143   1.004  17.413
20412W        W20893   7.291   0.694  14.891
20413W        W20894   8.077   2.083  17.452
20414W        W20895   9.435   1.481  16.631
20415W        W20896   9.302   3.560  14.927
20416W        W20897   7.448   2.067  14.624
20417W        W20898   7.704   1.645  17.381
20418W        W20899   8.695   1.750  17.175
20419W        W20900  10.463   0.109  17.437
20420W        W20901  10.861   1.719  17.428
20421W        W20902  10.849   1.919  15.114
20422W        W20903   9.712   2.251  15.213
20423W        W20904  10.186   3.551  14.908
20424W        W20905  10.617   1.358  16.663
20425W        W20906   8.780   0.117  14.867
20426W        W20907  10.319   2.716  14.810
20427W        W20908   8.522   2.803  17.558
20428W        W20909  10.648   0.794  17.356
20429W        W20910   9.859   3.453  15.324
20430W        W20911  10.098   2.072  16.691
20431W        W20912   8.348   0.488  17.358
20432W        W20913   8.320   2.736  15.309
20433W        W20914  10.075   2.234  15.573
20434W        W20915   7.843   0.860  17.297
20435W        W20916   9.172   2.922  15.761
20436W        W20917  10.922   1.482  15.942
20437W        W20918   9.144   0.115  17.661
20438W        W20919   9.924   2.820  16.740
20439W        W20920  10.227   3.164  16.448
20440W        W20921   9.446   2.966  14.876
20441W        W20922   7.456   2.858  17.718
20442W        W20923   8.199   0.850  16.956
20443W        W20924   8.169   0.198  16.066
20444W        W20925   9.790   1.040  16.758
20445W        W20926   8.588   2.211  14.958
20446W        W20927  10.586   2.153  16.457
20447W        W20928  10.300   3.593  15.677
20448W        W20929   8.399   0.613  16.122
20449W        W20930   8.168   2.106  16.212
20450W        W20931   8.481   3.517  16.962
20451W        W20932   9.707   1.801  16.927
20452W        W20933   7.556   1.599  14.842
20453W        W20934  10.690   3.257  15.539
20454W        W20935  10.527   0.581  15.158
20455W        W20936   8.666   0.100  17.561
20456W        W20937  10.372   2.902  16.019
20457W        W20938  10.401   1.458  15.924
20458W        W20939   8.518   1.131  16.140
20459W        W20940   8.763   1.393  17.464
20460W        W20941   9.874   2.546  17.327
20461W        W20942   8.524   1.000  17.439
20462W        W20943   8.503   3.466  16.055
20463W        W20944   7.932   2.786  14.819
20464W        W20945  10.449   2.544  15.629
20465W        W20946   8.053   1.336  17.515
20466W        W20947  10.826   1.266  14.996
20467W        W20948   8.571   2.323  15.467
20468W        W20949   9.670   1.705  17.548
20469W        W20950   9.561   1.333  17.092
20470W        W20951   8.121   1.705  17.121
20471W        W20952  10.331   3.593  16.950
20472W        W20953   7.786   0.377  17.531
20473W        W20954   8.125   1.400  16.584
20474W        W20955   8.494   1.214  14.706
20475W        W20956   7.297   2.973  17.251
20476W        W20957   8.882   1.682  16.694
20477W        W20958   8.705   0.707  14.799
20478W        W20959   7.840   1.523  15.580
20479W        W20960   7.611   3.375  17.017
20480W        W20961  10.406   1.601  15.125
20481W        W20962   9.937   2.726  15.774
20482W        W20963  10.501   0.114  15.247
20483W        W20964  10.021   2.589  15.258
20484W        W20965   8.923   1.647  15.343
20485W        W20966  10.110   0.451  14.866
20486W        W20967  10.175   1.058  17.052
20487W        W20968   8.178   2.590  15.908
20488W        W20969   9.941   1.210  15.873
20489W        W20970   8.964   0.589  16.569
20490W        W20971  10.926   2.500  17.080
20491W        W20972  10.844   0.487  16.641
20492W        W20973   7.383   3.317  16.017
20493W        W20974   7.892   2.504  15.553
20494W        W20975  10.681   1.942  15.998
20495W        W20976  10.035   2.119  14.878
20496W        W20977   9.330   3.640  17.090
20497W        W20978   9.002   0.072  15.407
20498W        W20979   9.715   0.941  16.266
20499W        W20980   7.401   2.528  16.598
20500W        W20981   8.654   0.490  15.239
20501W        W20982   9.452   0.955  15.802
20502W        W20983   9.657   2.365  16.924
20503W        W20984   7.811   2.970  17.359
20504W        W20985   8.253   0.750  15.096
20505W        W20986   9.770   0.892  15.421
20506W        W20987   9.728   3.000  17.658
20507W        W20988   8.413   1.592  16.257
20508W        W20989   8.068   3.290  17.122
20509W        W20990  10.813   3.407  14.723
20510W        W20991   8.107   1.990  15.649
20511W        W20992   8.478   2.997  17.044
20512W        W20993   8.856   0.416  16.085
20513W        W20994   7.467   2.400  15.015
20514W        W20995   8.986   1.351  14.885
20515W        W20996   7.632   1.900  15.904
20516W        W20997   8.922   0.542  17.368
20517W        W20998  10.594   0.251  14.795
20518W        W20999  10.899   2.348  17.568
20519W        W21000   8.046   3.602  16.657
20520W        W21001  10.905   2.224  15.531
20521W        W21002   9.435   1.491  16.044
20522W        W21003   9.202   0.103  15.934
20523W        W21004   8.261   3.087  15.771
20524W        W21005   8.760   0.828  16.996
20525W        W21006   8.460   0.197  16.465
20526W        W21007   7.523   3.019  15.013
20527W        W21008   9.339   2.383  15.731
20528W        W21009   8.214   3.178  17.610
20529W        W21010   7.691   2.001  15.306
20530W        W21011   7.576   0.544  16.305
20531W        W21012   9.124   2.509  16.362
20532W        W21013   7.376   0.363  15.382
20533W        W21014  10.040   1.569  17.309
20534W        W21015   9.917   0.955  14.881
20535W        W21016  10.434   2.627  16.529
20536W        W21017   9.095   3.111  16.360
20537W        W21018   8.507   3.215  15.271
20538W        W21019   9.789   0.118  14.701
20539W        W21020   7.589   3.378  16.442
20540W        W21021   7.500   1.266  15.409
20541W        W21022   8.191   1.255  15.134
20542W        W21023   8.297   1.863  16.660
20543W        W21024   9.771   0.149  15.780
20544W        W21025   8.902   3.580  16.283
20545W        W21026  10.116   3.042  17.220
20546W        W21027   9.700   3.191  16.331
20547W        W21028   9.719   2.171  15.925
20548W        W21029   9.181   0.396  14.996
20549W        W21030  10.862   0.024  15.718
20550W        W21031   8.550   1.659  14.881
20551W        W21032  10.716   0.996  15.871
20552W        W21033   9.408   2.166  14.748
20553W        W21034  10.344   2.366  17.496
20554W        W21035   9.998   3.067  14.963
20555W        W21036   8.433   1.326  17.110
20556W        W21037  10.525   2.821  17.387
20557W        W21038   7.469   1.242  17.541
20558W        W21039   9.229   1.719  17.267
20559W        W21040   7.586   2.477  15.924
20560W        W21041   7.733   1.774  16.814
20561W        W21042  10.050   2.060  17.164
20562W        W21043   9.822   3.440  17.975
20563W        W21044   9.718   1.179  17.528
20564W        W21045   9.995   3.233  15.933
20565W        W21046   8.997   2.953  17.256
20566W        W21047   8.482   3.308  16.525
20567W        W21048  10.287   2.479  16.944
20568W        W21049   7.942   2.504  16.420
20569W        W21050  10.288   2.263  16.065
20570W        W21051   9.929   3.329  16.816
20571W        W21052   7.907   3.058  16.686
20572W        W21053   9.379   3.276  15.407
20573W        W21054   8.813   2.769  15.422
20574W        W21055   8.034   1.509  14.681
20575W        W21056   7.373   7.239   3.359
20576W        W21057   7.749   6.132   2.882
20577W        W21058  10.454   5.862   0.652
20578W        W21059  10.584   6.947   2.679
20579W        W21060   8.502   6.938   0.205
20580W        W21061   8.585   5.090   1.188
20581W        W21062   8.100   4.938   1.352
20582W        W21063   9.091   5.753   0.786
20583W        W21064   8.766   6.845   3.141
20584W        W21065   7.415   4.406   3.104
20585W        W21066   8.177   3.686   2.906
20586W        W21067   9.871   4.074   1.793
20587W        W21068   9.520   4.945   0.363
20588W        W21069  10.090   4.379   3.454
20589W        W21070   7.456   4.171   2.579
20590W        W21071   7.555   6.790   3.600
20591W        W21072   9.077   6.180   0.332
20592W        W21073   7.509   4.963   2.025
20593W        W21074   8.402   4.854   3.262
20594W        W21075  10.861   4.713   1.761
20595W        W21076  10.625   5.756   2.620
20596W        W21077   8.933   5.089   1.647
20597W        W21078   9.479   6.428   2.016
20598W        W21079   7.979   5.862   2.248
20599W        W21080   7.338   5.390   1.819
20600W        W21081   8.374   5.362   3.011
20601W        W21082  10.645   5.145   3.265
20602W        W21083   8.261   6.589   1.710
20603W        W21084   9.382   6.278   2.844
20604W        W21085   8.602   4.918   2.069
20605W        W21086   8.894   5.702   1.712
20606W        W21087   9.891   6.475   3.560
20607W        W21088   8.970   5.795   3.570
20608W        W21089   8.951   5.511   3.048
20609W        W21090   7.360   4.902   3.570
20610W        W21091  10.192   6.437   3.169
20611W        W21092   7.773   4.019   1.167
20612W        W21093   8.300   6.277   2.166
20613W        W21094  10.763   6.060   1.456
20614W        W21095  10.176   4.460   2.023
20615W        W21096  10.461   4.413   0.118
20616W        W21097  10.926   5.214   2.424
20617W        W21098   8.893   6.921   2.177
20618W        W21099  10.667   6.387   0.615
20619W        W21100   7.796   7.173   0.369
20620W        W21101   8.189   7.219   1.045
20621W        W21102   7.986   3.973   2.471
20622W        W21103  10.609   4.991   2.746
20623W        W21104  10.014   5.413   1.205
20624W        W21105   9.980   5.101   0.232
20625W        W21106   9.188   6.245   2.372
20626W        W21107   8.994   4.575   1.571
20627W        W21108   9.594   6.662   2.565
20628W        W21109  10.465   5.453   0.987
20629W        W21110   9.367   4.111   1.003
20630W        W21111   8.024   6.805   0.686
20631W        W21112   7.395   4.304   1.285
20632W        W21113  10.181   4.911   1.759
20633W        W21114   7.639   6.528   1.674
20634W        W21115   8.980   6.878   0.544
20635W        W21116  10.372   4.904   0.008
20636W        W21117   7.395   6.662   2.172
20637W        W21118   8.186   6.234   2.652
20638W        W21119   8.559   5.594   1.271
20639W        W21120   8.581   3.999   2.364
20640W        W21121  10.810   3.761   1.661
20641W        W21122   8.029   5.633   0.129
20642W        W21123   7.684   4.666   0.308
20643W        W21124   7.746   6.622   1.102
20644W        W21125   8.877   6.105   1.350
20645W        W21126  10.209   6.964   3.064
20646W        W21127   9.135   4.606   0.748
20647W        W21128  10.518   7.004   1.520
20648W        W21129  10.195   4.857   3.118
20649W        W21130  10.908   6.513   1.252
20650W        W21131   9.535   5.805   2.736
20651W        W21132   7.301   5.356   0.942
20652W        W21133   8.412   5.771   2.515
20653W        W21134   9.616   5.035   0.893
20654W        W21135   9.493   5.525   0.997
20655W        W21136   7.836   4.945   2.471
20656W        W21137   7.821   4.821   3.393
20657W        W21138   7.711   3.738   1.552
20658W        W21139   9.479   4.085   2.113
20659W        W21140   9.127   4.270   3.276
20660W        W21141   9.482   4.419   0.454
20661W        W21142  10.665   6.812   3.208
20662W        W21143   9.632   3.893   3.247
20663W        W21144  10.651   6.194   3.369
20664W        W21145  10.081   4.361   2.965
20665W        W21146   9.881   4.299   1.235
20666W        W21147  10.274   5.433   3.639
20667W        W21148   8.014   7.009   1.625
20668W        W21149   8.672   4.726   0.611
20669W        W21150   8.241   4.010   3.275
20670W        W21151  10.293   4.494   0.956
20671W        W21152  10.660   4.976   0.901
20672W        W21153   8.403   7.193   3.372
20673W        W21154   8.329   3.729   0.607
20674W        W21155  10.650   4.263   1.642
20675W        W21156  10.800   6.512   0.087
20676W        W21157   7.707   5.715   1.789
20677W        W21158   9.624   4.302   0.019
20678W        W21159  10.758   6.634   1.739
20679W        W21160  10.797   3.828   2.489
20680W        W21161   9.242   5.040   3.043
20681W        W21162   9.335   6.379   0.746
20682W        W21163   9.735   5.673   3.486
20683W        W21164   9.409   3.650   1.795
20684W        W21165   8.021   4.553   1.858
20685W        W21166   7.575   5.753   2.632
20686W        W21167   9.434   6.946   1.338
20687W        W21168  10.628   4.543   2.210
20688W        W21169   9.265   6.890   2.977
20689W        W21170  10.608   5.949   0.182
20690W        W21171   9.043   5.432   1.243
20691W        W21172  10.895   3.943   2.984
20692W        W21173   9.044   5.778   2.578
20693W        W21174   9.261   4.664   2.023
20694W        W21175  10.113   4.962   0.861
20695W        W21176  10.400   4.695   0.503
20696W        W21177  10.209   6.735   0.892
20697W        W21178  10.043   6.338   1.688
20698W        W21179   9.939   5.417   0.666
20699W        W21180   9.372   5.627   1.652
20700W        W21181  10.253   5.415   1.719
20701W        W21182   7.628   4.430   2.143
20702W        W21183  10.406   5.482   2.970
20703W        W21184  10.757   7.100   2.116
20704W        W21185   9.694   7.077   2.842
20705W        W21186   9.688   4.407   2.606
20706W        W21187   8.895   7.115   2.667
20707W        W21188  10.592   4.069   1.133
20708W        W21189  10.383   5.388   2.434
20709W        W21190   7.366   4.709   2.472
20710W        W21191  10.226   4.504   1.490
20711W        W21192  10.637   4.655   3.267
20712W        W21193   9.522   6.354   1.485
20713W        W21194   8.778   6.945   1.098
20714W        W21195   7.893   4.125   0.356
20715W        W21196   8.997   3.779   2.166
20716W        W21197   8.025   6.899   0.014
20717W        W21198   8.399   5.365   0.765
20718W        W21199   9.053   5.994   3.078
20719W        W21200   8.883   4.352   1.068
20720W        W21201  10.239   3.949   1.496
20721W        W21202   9.959   7.231   1.824
20722W        W21203   9.371   6.879   2.164
20723W        W21204   8.767   5.916   2.125
20724W        W21205  10.537   6.639   2.251
20725W        W21206   8.231   4.142   1.020
20726W        W21207   8.753   6.439   1.980
20727W        W21208   8.236   4.370   0.045
20728W        W21209   9.037   4.979   2.439
20729W        W21210   9.885   3.845   2.309
20730W        W21211   7.305   5.688   2.194
20731W        W21212   9.009   5.506   0.352
20732W        W21213   8.277   3.821   0.122
20733W        W21214   9.015   4.902   1.173
20734W        W21215   9.985   3.878   2.872
20735W        W21216   8.573   5.890   2.981
20736W        W21217   9.377   5.672   3.198
20737W        W21218   9.994   5.702   3.091
20738W        W21219   9.278   3.842   3.596
20739W        W21220   8.500   4.458   1.989
20740W        W21221   7.926   4.414   1.387
20741W        W21222   7.712   7.126   1.063
20742W        W21223   9.044   6.456   3.188
20743W        W21224   8.079   5.941   0.547
20744W        W21225   9.759   5.326   1.768
20745W        W21226  10.039   5.125   2.167
20746W        W21227   9.244   5.799   2.101
20747W        W21228   9.714   6.173   0.233
20748W        W21229   9.386   4.194   1.561
20749W        W21230  10.865   4.472   0.829
20750W        W21231   7.359   7.061   2.860
20751W        W21232   7.776   6.287   2.392
20752W        W21233   7.343   7.133   0.624
20753W        W21234   9.242   4.403   2.430
20754W        W21235   8.605   6.426   0.279
20755W        W21236  10.510   6.808   0.465
20756W        W21237   9.485   5.461   0.479
20757W        W21238   8.328   4.652   0.996
20758W        W21239   9.160   4.562   0.048
20759W        W21240   9.744   6.127   3.226
20760W        W21241  10.097   4.033   0.843
20761W        W21242   7.427   3.881   0.291
20762W        W21243   8.713   6.200   2.581
20763W        W21244   8.512   6.116   1.673
20764W        W21245   8.254   6.068   0.071
20765W        W21246   7.495   6.309   0.839
20766W        W21247   7.999   5.379   3.281
20767W        W21248   8.703   3.939   3.467
20768W        W21249   9.412   4.081   2.823
20769W        W21250   8.607   3.849   1.104
20770W        W21251   9.666   3.926   0.609
20771W        W21252   7.611   3.858   2.186
20772W        W21253   7.659   4.821   1.556
20773W        W21254  10.348   3.929   1.962
20774W        W21255   7.770   4.427   0.776
20775W        W21256  10.341   4.115   2.392
20776W        W21257  10.737   5.318   0.077
20777W        W21258   8.029   4.076   1.896
20778W        W21259   9.143   4.648   2.836
20779W        W21260   7.291   4.338   0.314
20780W        W21261   8.077   5.727   2.875
20781W        W21262   9.435   5.125   2.054
20782W        W21263   9.302   7.204   0.350
20783W        W21264   7.448   5.711   0.047
20784W        W21265   8.183   6.122   3.173
20785W        W21266   7.704   5.289   2.804
20786W        W21267   8.695   5.394   2.598
20787W        W21268  10.861   5.363   2.851
20788W        W21269  10.849   5.563   0.537
20789W        W21270   9.712   5.895   0.636
20790W        W21271  10.186   7.195   0.331
20791W        W21272   9.363   5.185   3.473
20792W        W21273   7.693   6.152   3.513
20793W        W21274  10.899   4.074   3.465
20794W        W21275  10.617   5.002   2.086
20795W        W21276   8.925   7.132   3.563
20796W        W21277   8.780   3.761   0.290
20797W        W21278  10.319   6.360   0.233
20798W        W21279   8.088   4.453   3.119
20799W        W21280   8.522   6.447   2.981
20800W        W21281  10.648   4.438   2.779
20801W        W21282   9.859   7.097   0.747
20802W        W21283  10.098   5.716   2.114
20803W        W21284   8.348   4.132   2.781
20804W        W21285   8.320   6.380   0.732
20805W        W21286  10.075   5.878   0.996
20806W        W21287   7.843   4.504   2.720
20807W        W21288   9.172   6.566   1.184
20808W        W21289  10.922   5.126   1.365
20809W        W21290   9.144   3.759   3.084
20810W        W21291   9.924   6.464   2.163
20811W        W21292  10.227   6.808   1.871
20812W        W21293   9.446   6.610   0.299
20813W        W21294   7.456   6.502   3.141
20814W        W21295   8.199   4.494   2.379
20815W        W21296   8.169   3.842   1.489
20816W        W21297   8.588   5.855   0.381
20817W        W21298  10.586   5.797   1.880
20818W        W21299   7.913   6.555   3.303
20819W        W21300  10.300   7.237   1.100
20820W        W21301   8.399   4.257   1.545
20821W        W21302   8.168   5.750   1.635
20822W        W21303   8.481   7.161   2.385
20823W        W21304  10.548   7.257   3.417
20824W        W21305   9.707   5.445   2.350
20825W        W21306   7.556   5.243   0.265
20826W        W21307  10.690   6.901   0.962
20827W        W21308  10.527   4.225   0.581
20828W        W21309   8.666   3.744   2.984
20829W        W21310  10.372   6.546   1.442
20830W        W21311  10.401   5.102   1.347
20831W        W21312   8.518   4.775   1.563
20832W        W21313   8.763   5.037   2.887
20833W        W21314   9.874   6.190   2.750
20834W        W21315   8.524   4.644   2.862
20835W        W21316   8.503   7.110   1.478
20836W        W21317   7.820   7.069   3.112
20837W        W21318   7.932   6.430   0.242
20838W        W21319  10.449   6.188   1.052
20839W        W21320   8.053   4.980   2.938
20840W        W21321  10.826   4.910   0.419
20841W        W21322   8.571   5.967   0.890
20842W        W21323   9.670   5.349   2.971
20843W        W21324   9.561   4.977   2.515
20844W        W21325   8.121   5.349   2.544
20845W        W21326  10.331   7.237   2.373
20846W        W21327  10.122   3.871   3.367
20847W        W21328   7.786   4.021   2.954
20848W        W21329   8.125   5.044   2.007
20849W        W21330   8.494   4.858   0.129
20850W        W21331   7.297   6.617   2.674
20851W        W21332   8.882   5.326   2.117
20852W        W21333   8.705   4.351   0.222
20853W        W21334   7.840   5.167   1.003
20854W        W21335   7.611   7.019   2.440
20855W        W21336  10.406   5.245   0.548
20856W        W21337  10.501   4.161   3.234
20857W        W21338   9.937   6.370   1.197
20858W        W21339   7.535   5.294   3.374
20859W        W21340  10.501   3.758   0.670
20860W        W21341  10.021   6.233   0.681
20861W        W21342   8.923   5.291   0.766
20862W        W21343  10.110   4.095   0.289
20863W        W21344  10.175   4.702   2.475
20864W        W21345   7.884   5.295   1.682
20865W        W21346   8.178   6.234   1.331
20866W        W21347   9.941   4.854   1.296
20867W        W21348   8.964   4.233   1.992
20868W        W21349  10.926   6.144   2.503
20869W        W21350  10.844   4.131   2.064
20870W        W21351   7.383   6.961   1.440
20871W        W21352   7.892   6.148   0.976
20872W        W21353   7.807   3.765   3.529
20873W        W21354   8.926   6.618   3.631
20874W        W21355  10.681   5.586   1.421
20875W        W21356  10.035   5.763   0.301
20876W        W21357   9.330   7.284   2.513
20877W        W21358  10.187   6.006   3.550
20878W        W21359   9.002   3.716   0.830
20879W        W21360   9.715   4.585   1.689
20880W        W21361   7.401   6.172   2.021
20881W        W21362   8.654   4.134   0.662
20882W        W21363   8.458   5.618   3.511
20883W        W21364   9.452   4.599   1.225
20884W        W21365   9.657   6.009   2.347
20885W        W21366   7.811   6.614   2.782
20886W        W21367   8.402   6.597   3.505
20887W        W21368   8.253   4.394   0.519
20888W        W21369   9.770   4.536   0.844
20889W        W21370   9.728   6.644   3.081
20890W        W21371   8.413   5.236   1.680
20891W        W21372   8.068   6.934   2.545
20892W        W21373  10.813   7.051   0.146
20893W        W21374   7.676   5.723   3.142
20894W        W21375   9.671   5.985   1.830
20895W        W21376   8.107   5.634   1.072
20896W        W21377   8.478   6.641   2.467
20897W        W21378   8.856   4.060   1.508
20898W        W21379   7.467   6.044   0.438
20899W        W21380   8.986   4.995   0.308
20900W        W21381   7.632   5.544   1.327
20901W        W21382   8.922   4.186   2.791
20902W        W21383  10.594   3.895   0.218
20903W        W21384  10.687   5.641   3.317
20904W        W21385   9.341   6.898   3.469
20905W        W21386  10.899   5.992   2.991
20906W        W21387  10.307   6.790   3.602
20907W        W21388   8.046   7.246   2.080
20908W        W21389  10.905   5.868   0.954
20909W        W21390   9.435   5.135   1.467
20910W        W21391   9.202   3.747   1.357
20911W        W21392   8.261   6.731   1.194
20912W        W21393   8.760   4.472   2.419
20913W        W21394   8.460   3.841   1.888
20914W        W21395   7.523   6.663   0.436
20915W        W21396   9.339   6.027   1.154
20916W        W21397   8.214   6.822   3.033
20917W        W21398   7.691   5.645   0.729
20918W        W21399   7.576   4.188   1.728
20919W        W21400   9.124   6.153   1.785
20920W        W21401   7.376   4.007   0.805
20921W        W21402  10.040   5.213   2.732
20922W        W21403   9.917   4.599   0.304
20923W        W21404  10.434   6.271   1.952
20924W        W21405   9.095   6.755   1.783
20925W        W21406   8.507   6.859   0.694
20926W        W21407   7.589   7.022   1.865
20927W        W21408   9.786   4.780   3.500
20928W        W21409   7.769   4.310   3.499
20929W        W21410   7.500   4.910   0.832
20930W        W21411   8.191   4.899   0.557
20931W        W21412   9.954   5.226   3.374
20932W        W21413   8.297   5.507   2.083
20933W        W21414   9.771   3.793   1.203
20934W        W21415   8.902   7.224   1.706
20935W        W21416  10.116   6.686   2.643
20936W        W21417   9.700   6.835   1.754
20937W        W21418   9.719   5.815   1.348
20938W        W21419   9.181   4.040   0.419
20939W        W21420  10.862   3.668   1.141
20940W        W21421   8.550   5.303   0.304
20941W        W21422  10.716   4.640   1.294
20942W        W21423   9.408   5.810   0.171
20943W        W21424  10.344   6.010   2.919
20944W        W21425   9.998   6.711   0.386
20945W        W21426   8.613   4.386   3.292
20946W        W21427   8.433   4.970   2.533
20947W        W21428  10.525   6.465   2.810
20948W        W21429   9.625   4.415   3.187
20949W        W21430   7.469   4.886   2.964
20950W        W21431   9.229   5.363   2.690
20951W        W21432   7.586   6.121   1.347
20952W        W21433   7.733   5.418   2.237
20953W        W21434  10.050   5.704   2.587
20954W        W21435   9.822   7.084   3.398
20955W        W21436   9.718   4.823   2.951
20956W        W21437   9.995   6.877   1.356
20957W        W21438   8.997   6.597   2.679
20958W        W21439   8.482   6.952   1.948
20959W        W21440  10.287   6.123   2.367
20960W        W21441   9.337   6.195   3.504
20961W        W21442   7.942   6.148   1.843
20962W        W21443  10.288   5.907   1.488
20963W        W21444   9.929   6.973   2.239
20964W        W21445   7.907   6.702   2.109
20965W        W21446   8.928   4.754   3.319
20966W        W21447   9.379   6.920   0.830
20967W        W21448   8.687   6.175   3.468
20968W        W21449   8.813   6.413   0.845
20969W        W21450   8.034   5.153   0.104
20970W        W21451   7.373   7.239   7.003
20971W        W21452   7.749   6.132   6.526
20972W        W21453  10.454   5.862   4.296
20973W        W21454  10.584   6.947   6.323
20974W        W21455   8.502   6.938   3.849
20975W        W21456   8.585   5.090   4.832
20976W        W21457   8.100   4.938   4.996
20977W        W21458   9.091   5.753   4.430
20978W        W21459   8.766   6.845   6.785
20979W        W21460   7.415   4.406   6.748
20980W        W21461   8.177   3.686   6.550
20981W        W21462   9.871   4.074   5.437
20982W        W21463   9.520   4.945   4.007
20983W        W21464  10.090   4.379   7.098
20984W        W21465   7.456   4.171   6.223
20985W        W21466   7.555   6.790   7.244
20986W        W21467   9.077   6.180   3.976
20987W        W21468   7.509   4.963   5.669
20988W        W21469   8.402   4.854   6.906
20989W        W21470  10.861   4.713   5.405
20990W        W21471  10.625   5.756   6.264
20991W        W21472   8.933   5.089   5.291
20992W        W21473   9.479   6.428   5.660
20993W        W21474   7.979   5.862   5.892
20994W        W21475   7.338   5.390   5.463
20995W        W21476   8.374   5.362   6.655
20996W        W21477   8.261   6.589   5.354
20997W        W21478   9.382   6.278   6.488
20998W        W21479   8.602   4.918   5.713
20999W        W21480   8.894   5.702   5.356
21000W        W21481   9.891   6.475   7.204
21001W        W21482   8.970   5.795   7.214
21002W        W21483   8.951   5.511   6.692
21003W        W21484   7.360   4.902   7.214
21004W        W21485  10.192   6.437   6.813
21005W        W21486   7.773   4.019   4.811
21006W        W21487   8.300   6.277   5.810
21007W        W21488  10.763   6.060   5.100
21008W        W21489  10.176   4.460   5.667
21009W        W21490  10.461   4.413   3.762
21010W        W21491  10.926   5.214   6.068
21011W        W21492   8.893   6.921   5.821
21012W        W21493  10.667   6.387   4.259
21013W        W21494   7.796   7.173   4.013
21014W        W21495   8.189   7.219   4.689
21015W        W21496   7.986   3.973   6.115
21016W        W21497  10.609   4.991   6.390
21017W        W21498  10.014   5.413   4.849
21018W        W21499   9.980   5.101   3.876
21019W        W21500   9.188   6.245   6.016
21020W        W21501   8.994   4.575   5.215
21021W        W21502   9.594   6.662   6.209
21022W        W21503  10.465   5.453   4.631
21023W        W21504   9.367   4.111   4.647
21024W        W21505   8.024   6.805   4.330
21025W        W21506   7.395   4.304   4.929
21026W        W21507  10.181   4.911   5.403
21027W        W21508   7.639   6.528   5.318
21028W        W21509   8.980   6.878   4.188
21029W        W21510  10.372   4.904   3.652
21030W        W21511   7.395   6.662   5.816
21031W        W21512   8.186   6.234   6.296
21032W        W21513   8.559   5.594   4.915
21033W        W21514   8.581   3.999   6.008
21034W        W21515  10.810   3.761   5.305
21035W        W21516   8.029   5.633   3.773
21036W        W21517   7.684   4.666   3.952
21037W        W21518   7.746   6.622   4.746
21038W        W21519   8.877   6.105   4.994
21039W        W21520  10.209   6.964   6.708
21040W        W21521   9.135   4.606   4.392
21041W        W21522  10.518   7.004   5.164
21042W        W21523  10.195   4.857   6.762
21043W        W21524  10.908   6.513   4.896
21044W        W21525   9.535   5.805   6.380
21045W        W21526   7.301   5.356   4.586
21046W        W21527   8.412   5.771   6.159
21047W        W21528   9.616   5.035   4.537
21048W        W21529   9.493   5.525   4.641
21049W        W21530   7.836   4.945   6.115
21050W        W21531   7.821   4.821   7.037
21051W        W21532   7.711   3.738   5.196
21052W        W21533   9.479   4.085   5.757
21053W        W21534   9.127   4.270   6.920
21054W        W21535   9.482   4.419   4.098
21055W        W21536  10.665   6.812   6.852
21056W        W21537   9.632   3.893   6.891
21057W        W21538  10.651   6.194   7.013
21058W        W21539  10.081   4.361   6.609
21059W        W21540   9.881   4.299   4.879
21060W        W21541  10.274   5.433   7.283
21061W        W21542   8.014   7.009   5.269
21062W        W21543   8.672   4.726   4.255
21063W        W21544   8.241   4.010   6.919
21064W        W21545  10.293   4.494   4.600
21065W        W21546  10.660   4.976   4.545
21066W        W21547   8.403   7.193   7.016
21067W        W21548   8.329   3.729   4.251
21068W        W21549  10.650   4.263   5.286
21069W        W21550  10.800   6.512   3.731
21070W        W21551   7.707   5.715   5.433
21071W        W21552   9.624   4.302   3.663
21072W        W21553  10.758   6.634   5.383
21073W        W21554  10.797   3.828   6.133
21074W        W21555   9.242   5.040   6.687
21075W        W21556   9.335   6.379   4.390
21076W        W21557   9.735   5.673   7.130
21077W        W21558   9.409   3.650   5.439
21078W        W21559   8.021   4.553   5.502
21079W        W21560   7.575   5.753   6.276
21080W        W21561   9.434   6.946   4.982
21081W        W21562  10.628   4.543   5.854
21082W        W21563   9.265   6.890   6.621
21083W        W21564  10.608   5.949   3.826
21084W        W21565   9.043   5.432   4.887
21085W        W21566  10.895   3.943   6.628
21086W        W21567   9.044   5.778   6.222
21087W        W21568   9.261   4.664   5.667
21088W        W21569  10.113   4.962   4.505
21089W        W21570  10.400   4.695   4.147
21090W        W21571  10.209   6.735   4.536
21091W        W21572  10.043   6.338   5.332
21092W        W21573   9.372   5.627   5.296
21093W        W21574  10.253   5.415   5.363
21094W        W21575   7.628   4.430   5.787
21095W        W21576  10.406   5.482   6.614
21096W        W21577  10.757   7.100   5.760
21097W        W21578   8.687   6.544   5.162
21098W        W21579   9.694   7.077   6.486
21099W        W21580   9.688   4.407   6.250
21100W        W21581   8.895   7.115   6.311
21101W        W21582  10.383   5.388   6.078
21102W        W21583   7.366   4.709   6.116
21103W        W21584  10.226   4.504   5.134
21104W        W21585  10.637   4.655   6.911
21105W        W21586   9.522   6.354   5.129
21106W        W21587   8.778   6.945   4.742
21107W        W21588   7.893   4.125   4.000
21108W        W21589   8.997   3.779   5.810
21109W        W21590   8.025   6.899   3.658
21110W        W21591   8.399   5.365   4.409
21111W        W21592   9.053   5.994   6.722
21112W        W21593   8.883   4.352   4.712
21113W        W21594  10.239   3.949   5.140
21114W        W21595   9.959   7.231   5.468
21115W        W21596   9.371   6.879   5.808
21116W        W21597   8.767   5.916   5.769
21117W        W21598  10.537   6.639   5.895
21118W        W21599   8.231   4.142   4.664
21119W        W21600   8.753   6.439   5.624
21120W        W21601   8.236   4.370   3.689
21121W        W21602   9.037   4.979   6.083
21122W        W21603   9.885   3.845   5.953
21123W        W21604   7.305   5.688   5.838
21124W        W21605   9.009   5.506   3.996
21125W        W21606   8.277   3.821   3.766
21126W        W21607   9.015   4.902   4.817
21127W        W21608   9.985   3.878   6.516
21128W        W21609   8.573   5.890   6.625
21129W        W21610   9.377   5.672   6.842
21130W        W21611   9.994   5.702   6.735
21131W        W21612   9.278   3.842   7.240
21132W        W21613   8.500   4.458   5.633
21133W        W21614   7.926   4.414   5.031
21134W        W21615   7.712   7.126   4.707
21135W        W21616   9.044   6.456   6.832
21136W        W21617   8.079   5.941   4.191
21137W        W21618   9.759   5.326   5.412
21138W        W21619  10.039   5.125   5.811
21139W        W21620   9.244   5.799   5.745
21140W        W21621   9.714   6.173   3.877
21141W        W21622   9.386   4.194   5.205
21142W        W21623  10.865   4.472   4.473
21143W        W21624   7.359   7.061   6.504
21144W        W21625   7.776   6.287   6.036
21145W        W21626   7.343   7.133   4.268
21146W        W21627   9.242   4.403   6.074
21147W        W21628   8.605   6.426   3.923
21148W        W21629  10.510   6.808   4.109
21149W        W21630   9.485   5.461   4.123
21150W        W21631   8.328   4.652   4.640
21151W        W21632   9.160   4.562   3.692
21152W        W21633   9.744   6.127   6.870
21153W        W21634  10.097   4.033   4.487
21154W        W21635   7.427   3.881   3.935
21155W        W21636   8.713   6.200   6.225
21156W        W21637   8.512   6.116   5.317
21157W        W21638   8.254   6.068   3.715
21158W        W21639   7.495   6.309   4.483
21159W        W21640   7.999   5.379   6.925
21160W        W21641   8.703   3.939   7.111
21161W        W21642   9.412   4.081   6.467
21162W        W21643   8.607   3.849   4.748
21163W        W21644   9.666   3.926   4.253
21164W        W21645   7.611   3.858   5.830
21165W        W21646  10.348   3.929   5.606
21166W        W21647   7.770   4.427   4.420
21167W        W21648  10.341   4.115   6.036
21168W        W21649  10.737   5.318   3.721
21169W        W21650   8.029   4.076   5.540
21170W        W21651   9.143   4.648   6.480
21171W        W21652   7.291   4.338   3.958
21172W        W21653   8.077   5.727   6.519
21173W        W21654   9.435   5.125   5.698
21174W        W21655   9.302   7.204   3.994
21175W        W21656   7.448   5.711   3.691
21176W        W21657   8.183   6.122   6.817
21177W        W21658   7.704   5.289   6.448
21178W        W21659   8.695   5.394   6.242
21179W        W21660  10.463   3.753   6.504
21180W        W21661  10.861   5.363   6.495
21181W        W21662  10.849   5.563   4.181
21182W        W21663   9.712   5.895   4.280
21183W        W21664  10.186   7.195   3.975
21184W        W21665   9.363   5.185   7.117
21185W        W21666   7.693   6.152   7.157
21186W        W21667  10.899   4.074   7.109
21187W        W21668  10.617   5.002   5.730
21188W        W21669   8.925   7.132   7.207
21189W        W21670   8.780   3.761   3.934
21190W        W21671  10.319   6.360   3.877
21191W        W21672   8.088   4.453   6.763
21192W        W21673   8.522   6.447   6.625
21193W        W21674  10.648   4.438   6.423
21194W        W21675   9.859   7.097   4.391
21195W        W21676  10.098   5.716   5.758
21196W        W21677   8.348   4.132   6.425
21197W        W21678   8.817   5.201   7.182
21198W        W21679   8.320   6.380   4.376
21199W        W21680  10.075   5.878   4.640
21200W        W21681   7.843   4.504   6.364
21201W        W21682   9.172   6.566   4.828
21202W        W21683  10.922   5.126   5.009
21203W        W21684   9.144   3.759   6.728
21204W        W21685   9.924   6.464   5.807
21205W        W21686  10.227   6.808   5.515
21206W        W21687   9.446   6.610   3.943
21207W        W21688   7.456   6.502   6.785
21208W        W21689   8.199   4.494   6.023
21209W        W21690   8.169   3.842   5.133
21210W        W21691   9.790   4.684   5.825
21211W        W21692   8.588   5.855   4.025
21212W        W21693  10.586   5.797   5.524
21213W        W21694   7.913   6.555   6.947
21214W        W21695  10.300   7.237   4.744
21215W        W21696   8.399   4.257   5.189
21216W        W21697   8.168   5.750   5.279
21217W        W21698   8.481   7.161   6.029
21218W        W21699  10.548   7.257   7.061
21219W        W21700   7.556   5.243   3.909
21220W        W21701  10.690   6.901   4.606
21221W        W21702  10.527   4.225   4.225
21222W        W21703   8.666   3.744   6.628
21223W        W21704  10.372   6.546   5.086
21224W        W21705  10.401   5.102   4.991
21225W        W21706   8.518   4.775   5.207
21226W        W21707   8.763   5.037   6.531
21227W        W21708   9.874   6.190   6.394
21228W        W21709   8.524   4.644   6.506
21229W        W21710   8.503   7.110   5.122
21230W        W21711   7.820   7.069   6.756
21231W        W21712   7.932   6.430   3.886
21232W        W21713  10.449   6.188   4.696
21233W        W21714   8.053   4.980   6.582
21234W        W21715  10.826   4.910   4.063
21235W        W21716   8.571   5.967   4.534
21236W        W21717   9.670   5.349   6.615
21237W        W21718   9.561   4.977   6.159
21238W        W21719   8.121   5.349   6.188
21239W        W21720  10.331   7.237   6.017
21240W        W21721  10.122   3.871   7.011
21241W        W21722   7.786   4.021   6.598
21242W        W21723   8.125   5.044   5.651
21243W        W21724   8.494   4.858   3.773
21244W        W21725   7.297   6.617   6.318
21245W        W21726   8.882   5.326   5.761
21246W        W21727   8.705   4.351   3.866
21247W        W21728   7.840   5.167   4.647
21248W        W21729   7.611   7.019   6.084
21249W        W21730  10.406   5.245   4.192
21250W        W21731  10.501   4.161   6.878
21251W        W21732   9.937   6.370   4.841
21252W        W21733   7.535   5.294   7.018
21253W        W21734  10.501   3.758   4.314
21254W        W21735  10.021   6.233   4.325
21255W        W21736   8.923   5.291   4.410
21256W        W21737  10.110   4.095   3.933
21257W        W21738  10.175   4.702   6.119
21258W        W21739   7.884   5.295   5.326
21259W        W21740   8.178   6.234   4.975
21260W        W21741   9.941   4.854   4.940
21261W        W21742   8.964   4.233   5.636
21262W        W21743  10.926   6.144   6.147
21263W        W21744  10.844   4.131   5.708
21264W        W21745   7.383   6.961   5.084
21265W        W21746   7.892   6.148   4.620
21266W        W21747   7.807   3.765   7.173
21267W        W21748   8.926   6.618   7.275
21268W        W21749  10.681   5.586   5.065
21269W        W21750  10.035   5.763   3.945
21270W        W21751   9.330   7.284   6.157
21271W        W21752  10.187   6.006   7.194
21272W        W21753   9.002   3.716   4.474
21273W        W21754   9.715   4.585   5.333
21274W        W21755   7.401   6.172   5.665
21275W        W21756   8.654   4.134   4.306
21276W        W21757   8.458   5.618   7.155
21277W        W21758   9.452   4.599   4.869
21278W        W21759   9.657   6.009   5.991
21279W        W21760   7.811   6.614   6.426
21280W        W21761   8.402   6.597   7.149
21281W        W21762   8.253   4.394   4.163
21282W        W21763   9.770   4.536   4.488
21283W        W21764   9.728   6.644   6.725
21284W        W21765   8.413   5.236   5.324
21285W        W21766   8.068   6.934   6.189
21286W        W21767  10.813   7.051   3.790
21287W        W21768   7.676   5.723   6.786
21288W        W21769   9.671   5.985   5.474
21289W        W21770   8.107   5.634   4.716
21290W        W21771   8.478   6.641   6.111
21291W        W21772   8.856   4.060   5.152
21292W        W21773   7.467   6.044   4.082
21293W        W21774   8.986   4.995   3.952
21294W        W21775   7.632   5.544   4.971
21295W        W21776   8.922   4.186   6.435
21296W        W21777  10.594   3.895   3.862
21297W        W21778  10.687   5.641   6.961
21298W        W21779   9.341   6.898   7.113
21299W        W21780  10.899   5.992   6.635
21300W        W21781  10.307   6.790   7.246
21301W        W21782   8.046   7.246   5.724
21302W        W21783  10.905   5.868   4.598
21303W        W21784   9.435   5.135   5.111
21304W        W21785   9.202   3.747   5.001
21305W        W21786   8.261   6.731   4.838
21306W        W21787   8.760   4.472   6.063
21307W        W21788   8.460   3.841   5.532
21308W        W21789   7.523   6.663   4.080
21309W        W21790   9.339   6.027   4.798
21310W        W21791   8.214   6.822   6.677
21311W        W21792   7.691   5.645   4.373
21312W        W21793   7.576   4.188   5.372
21313W        W21794   9.124   6.153   5.429
21314W        W21795   7.376   4.007   4.449
21315W        W21796  10.040   5.213   6.376
21316W        W21797   9.917   4.599   3.948
21317W        W21798  10.434   6.271   5.596
21318W        W21799   9.095   6.755   5.427
21319W        W21800   8.507   6.859   4.338
21320W        W21801   9.789   3.762   3.768
21321W        W21802   7.589   7.022   5.509
21322W        W21803   9.786   4.780   7.144
21323W        W21804   7.769   4.310   7.143
21324W        W21805   7.500   4.910   4.476
21325W        W21806   8.191   4.899   4.201
21326W        W21807   9.954   5.226   7.018
21327W        W21808   8.297   5.507   5.727
21328W        W21809   9.771   3.793   4.847
21329W        W21810   8.902   7.224   5.350
21330W        W21811  10.116   6.686   6.287
21331W        W21812   9.700   6.835   5.398
21332W        W21813   9.719   5.815   4.992
21333W        W21814   9.181   4.040   4.063
21334W        W21815  10.862   3.668   4.785
21335W        W21816   8.550   5.303   3.948
21336W        W21817  10.716   4.640   4.938
21337W        W21818   9.408   5.810   3.815
21338W        W21819  10.344   6.010   6.563
21339W        W21820   9.998   6.711   4.030
21340W        W21821   8.613   4.386   6.936
21341W        W21822   8.433   4.970   6.177
21342W        W21823  10.525   6.465   6.454
21343W        W21824   9.625   4.415   6.831
21344W        W21825   7.469   4.886   6.608
21345W        W21826   9.229   5.363   6.334
21346W        W21827   7.586   6.121   4.991
21347W        W21828   7.733   5.418   5.881
21348W        W21829  10.050   5.704   6.231
21349W        W21830   9.822   7.084   7.042
21350W        W21831   9.718   4.823   6.595
21351W        W21832   9.995   6.877   5.000
21352W        W21833   8.997   6.597   6.323
21353W        W21834   8.482   6.952   5.592
21354W        W21835  10.287   6.123   6.011
21355W        W21836   9.337   6.195   7.148
21356W        W21837   7.942   6.148   5.487
21357W        W21838  10.288   5.907   5.132
21358W        W21839   9.929   6.973   5.883
21359W        W21840   7.907   6.702   5.753
21360W        W21841   8.928   4.754   6.963
21361W        W21842   9.379   6.920   4.474
21362W        W21843   8.687   6.175   7.112
21363W        W21844   8.813   6.413   4.489
21364W        W21845   8.034   5.153   3.748
21365W        W21846   7.373   7.239  10.648
21366W        W21847   7.749   6.132  10.171
21367W        W21848  10.454   5.862   7.941
21368W        W21849  10.584   6.947   9.968
21369W        W21850   8.502   6.938   7.494
21370W        W21851   8.585   5.090   8.477
21371W        W21852   8.100   4.938   8.641
21372W        W21853   9.091   5.753   8.075
21373W        W21854   8.766   6.845  10.430
21374W        W21855   7.415   4.406  10.393
21375W        W21856   8.177   3.686  10.195
21376W        W21857   9.871   4.074   9.082
21377W        W21858   9.520   4.945   7.652
21378W        W21859   7.456   4.171   9.868
21379W        W21860   7.555   6.790  10.889
21380W        W21861   9.077   6.180   7.621
21381W        W21862   7.509   4.963   9.314
21382W        W21863   8.402   4.854  10.551
21383W        W21864  10.861   4.713   9.050
21384W        W21865  10.625   5.756   9.909
21385W        W21866   8.933   5.089   8.936
21386W        W21867   7.979   5.862   9.537
21387W        W21868   7.338   5.390   9.108
21388W        W21869   8.374   5.362  10.300
21389W        W21870  10.645   5.145  10.554
21390W        W21871   9.382   6.278  10.133
21391W        W21872   8.602   4.918   9.358
21392W        W21873   8.894   5.702   9.001
21393W        W21874   9.891   6.475  10.849
21394W        W21875   8.970   5.795  10.859
21395W        W21876   8.951   5.511  10.337
21396W        W21877   7.360   4.902  10.859
21397W        W21878  10.192   6.437  10.458
21398W        W21879   7.773   4.019   8.456
21399W        W21880   8.300   6.277   9.455
21400W        W21881  10.763   6.060   8.745
21401W        W21882  10.176   4.460   9.312
21402W        W21883  10.461   4.413   7.407
21403W        W21884  10.926   5.214   9.713
21404W        W21885  10.667   6.387   7.904
21405W        W21886   7.796   7.173   7.658
21406W        W21887   7.986   3.973   9.760
21407W        W21888  10.609   4.991  10.035
21408W        W21889  10.014   5.413   8.494
21409W        W21890   9.980   5.101   7.521
21410W        W21891   9.188   6.245   9.661
21411W        W21892   8.994   4.575   8.860
21412W        W21893   9.594   6.662   9.854
21413W        W21894  10.465   5.453   8.276
21414W        W21895   9.367   4.111   8.292
21415W        W21896   8.024   6.805   7.975
21416W        W21897   7.395   4.304   8.574
21417W        W21898  10.181   4.911   9.048
21418W        W21899   8.980   6.878   7.833
21419W        W21900  10.372   4.904   7.297
21420W        W21901   7.395   6.662   9.461
21421W        W21902   8.186   6.234   9.941
21422W        W21903   8.559   5.594   8.560
21423W        W21904   8.581   3.999   9.653
21424W        W21905  10.810   3.761   8.950
21425W        W21906   8.029   5.633   7.418
21426W        W21907   7.684   4.666   7.597
21427W        W21908   7.746   6.622   8.391
21428W        W21909   8.877   6.105   8.639
21429W        W21910  10.209   6.964  10.353
21430W        W21911   9.135   4.606   8.037
21431W        W21912  10.518   7.004   8.809
21432W        W21913  10.195   4.857  10.407
21433W        W21914  10.908   6.513   8.541
21434W        W21915   9.535   5.805  10.025
21435W        W21916   7.301   5.356   8.231
21436W        W21917   8.412   5.771   9.804
21437W        W21918   9.616   5.035   8.182
21438W        W21919   9.493   5.525   8.286
21439W        W21920   7.836   4.945   9.760
21440W        W21921   7.821   4.821  10.682
21441W        W21922   7.711   3.738   8.841
21442W        W21923   9.479   4.085   9.402
21443W        W21924   9.127   4.270  10.565
21444W        W21925   9.482   4.419   7.743
21445W        W21926  10.665   6.812  10.497
21446W        W21927   9.632   3.893  10.536
21447W        W21928  10.651   6.194  10.658
21448W        W21929  10.081   4.361  10.254
21449W        W21930   9.881   4.299   8.524
21450W        W21931  10.274   5.433  10.928
21451W        W21932   8.672   4.726   7.900
21452W        W21933   8.241   4.010  10.564
21453W        W21934  10.293   4.494   8.245
21454W        W21935  10.660   4.976   8.190
21455W        W21936   8.403   7.193  10.661
21456W        W21937   8.329   3.729   7.896
21457W        W21938  10.650   4.263   8.931
21458W        W21939  10.800   6.512   7.376
21459W        W21940   7.707   5.715   9.078
21460W        W21941   9.624   4.302   7.308
21461W        W21942  10.758   6.634   9.028
21462W        W21943  10.797   3.828   9.778
21463W        W21944   9.242   5.040  10.332
21464W        W21945   9.335   6.379   8.035
21465W        W21946   9.735   5.673  10.775
21466W        W21947   9.409   3.650   9.084
21467W        W21948   8.021   4.553   9.147
21468W        W21949   7.575   5.753   9.921
21469W        W21950   9.434   6.946   8.627
21470W        W21951  10.628   4.543   9.499
21471W        W21952   9.265   6.890  10.266
21472W        W21953  10.608   5.949   7.471
21473W        W21954   9.043   5.432   8.532
21474W        W21955  10.895   3.943  10.273
21475W        W21956   9.044   5.778   9.867
21476W        W21957   9.261   4.664   9.312
21477W        W21958  10.113   4.962   8.150
21478W        W21959  10.400   4.695   7.792
21479W        W21960  10.209   6.735   8.181
21480W        W21961  10.043   6.338   8.977
21481W        W21962   9.939   5.417   7.955
21482W        W21963   9.372   5.627   8.941
21483W        W21964  10.253   5.415   9.008
21484W        W21965   7.628   4.430   9.432
21485W        W21966  10.406   5.482  10.259
21486W        W21967  10.757   7.100   9.405
21487W        W21968   9.694   7.077  10.131
21488W        W21969   9.688   4.407   9.895
21489W        W21970  10.592   4.069   8.422
21490W        W21971  10.383   5.388   9.723
21491W        W21972   7.366   4.709   9.761
21492W        W21973  10.226   4.504   8.779
21493W        W21974  10.637   4.655  10.556
21494W        W21975   8.778   6.945   8.387
21495W        W21976   7.893   4.125   7.645
21496W        W21977   8.997   3.779   9.455
21497W        W21978   8.025   6.899   7.303
21498W        W21979   8.399   5.365   8.054
21499W        W21980   9.053   5.994  10.367
21500W        W21981   8.883   4.352   8.357
21501W        W21982  10.239   3.949   8.785
21502W        W21983  10.537   6.639   9.540
21503W        W21984   8.231   4.142   8.309
21504W        W21985   8.236   4.370   7.334
21505W        W21986   9.037   4.979   9.728
21506W        W21987   9.885   3.845   9.598
21507W        W21988   9.009   5.506   7.641
21508W        W21989   8.277   3.821   7.411
21509W        W21990   9.015   4.902   8.462
21510W        W21991   9.985   3.878  10.161
21511W        W21992   8.573   5.890  10.270
21512W        W21993   9.377   5.672  10.487
21513W        W21994   9.994   5.702  10.380
21514W        W21995   9.278   3.842  10.885
21515W        W21996   8.500   4.458   9.278
21516W        W21997   7.926   4.414   8.676
21517W        W21998   7.712   7.126   8.352
21518W        W21999   9.044   6.456  10.477
21519W        W22000   8.079   5.941   7.836
21520W        W22001   9.759   5.326   9.057
21521W        W22002  10.039   5.125   9.456
21522W        W22003   9.244   5.799   9.390
21523W        W22004   9.714   6.173   7.522
21524W        W22005   9.386   4.194   8.850
21525W        W22006  10.865   4.472   8.118
21526W        W22007   7.359   7.061  10.149
21527W        W22008   7.776   6.287   9.681
21528W        W22009   7.343   7.133   7.913
21529W        W22010   9.242   4.403   9.719
21530W        W22011   8.605   6.426   7.568
21531W        W22012  10.510   6.808   7.754
21532W        W22013   9.485   5.461   7.768
21533W        W22014   8.328   4.652   8.285
21534W        W22015   9.160   4.562   7.337
21535W        W22016   9.744   6.127  10.515
21536W        W22017  10.097   4.033   8.132
21537W        W22018   7.427   3.881   7.580
21538W        W22019   8.713   6.200   9.870
21539W        W22020   8.254   6.068   7.360
21540W        W22021   7.495   6.309   8.128
21541W        W22022   7.999   5.379  10.570
21542W        W22023   8.703   3.939  10.756
21543W        W22024   9.412   4.081  10.112
21544W        W22025   8.607   3.849   8.393
21545W        W22026   9.666   3.926   7.898
21546W        W22027   7.611   3.858   9.475
21547W        W22028   7.659   4.821   8.845
21548W        W22029  10.348   3.929   9.251
21549W        W22030   7.770   4.427   8.065
21550W        W22031  10.341   4.115   9.681
21551W        W22032  10.737   5.318   7.366
21552W        W22033   8.029   4.076   9.185
21553W        W22034   9.143   4.648  10.125
21554W        W22035   7.291   4.338   7.603
21555W        W22036   8.077   5.727  10.164
21556W        W22037   9.435   5.125   9.343
21557W        W22038   9.302   7.204   7.639
21558W        W22039   7.448   5.711   7.336
21559W        W22040   8.183   6.122  10.462
21560W        W22041   7.704   5.289  10.093
21561W        W22042   8.695   5.394   9.887
21562W        W22043  10.463   3.753  10.149
21563W        W22044  10.861   5.363  10.140
21564W        W22045  10.849   5.563   7.826
21565W        W22046   9.712   5.895   7.925
21566W        W22047  10.186   7.195   7.620
21567W        W22048   9.363   5.185  10.762
21568W        W22049   7.693   6.152  10.802
21569W        W22050  10.899   4.074  10.754
21570W        W22051  10.617   5.002   9.375
21571W        W22052   8.925   7.132  10.852
21572W        W22053   8.780   3.761   7.579
21573W        W22054  10.319   6.360   7.522
21574W        W22055   8.088   4.453  10.408
21575W        W22056   8.522   6.447  10.270
21576W        W22057  10.648   4.438  10.068
21577W        W22058   9.859   7.097   8.036
21578W        W22059  10.098   5.716   9.403
21579W        W22060   8.348   4.132  10.070
21580W        W22061   8.817   5.201  10.827
21581W        W22062   8.320   6.380   8.021
21582W        W22063  10.075   5.878   8.285
21583W        W22064   7.843   4.504  10.009
21584W        W22065   9.172   6.566   8.473
21585W        W22066  10.922   5.126   8.654
21586W        W22067   9.144   3.759  10.373
21587W        W22068   9.924   6.464   9.452
21588W        W22069  10.227   6.808   9.160
21589W        W22070   9.446   6.610   7.588
21590W        W22071   7.456   6.502  10.430
21591W        W22072   8.199   4.494   9.668
21592W        W22073   8.169   3.842   8.778
21593W        W22074   9.790   4.684   9.470
21594W        W22075   8.588   5.855   7.670
21595W        W22076  10.586   5.797   9.169
21596W        W22077   7.913   6.555  10.592
21597W        W22078  10.300   7.237   8.389
21598W        W22079   8.399   4.257   8.834
21599W        W22080   8.168   5.750   8.924
21600W        W22081  10.548   7.257  10.706
21601W        W22082   9.707   5.445   9.639
21602W        W22083   7.556   5.243   7.554
21603W        W22084  10.690   6.901   8.251
21604W        W22085  10.527   4.225   7.870
21605W        W22086   8.666   3.744  10.273
21606W        W22087  10.372   6.546   8.731
21607W        W22088  10.401   5.102   8.636
21608W        W22089   8.518   4.775   8.852
21609W        W22090   8.763   5.037  10.176
21610W        W22091   9.874   6.190  10.039
21611W        W22092   8.524   4.644  10.151
21612W        W22093   7.820   7.069  10.401
21613W        W22094   7.932   6.430   7.531
21614W        W22095  10.449   6.188   8.341
21615W        W22096   8.053   4.980  10.227
21616W        W22097  10.826   4.910   7.708
21617W        W22098   8.571   5.967   8.179
21618W        W22099   9.670   5.349  10.260
21619W        W22100   9.561   4.977   9.804
21620W        W22101   8.121   5.349   9.833
21621W        W22102  10.331   7.237   9.662
21622W        W22103  10.122   3.871  10.656
21623W        W22104   7.786   4.021  10.243
21624W        W22105   8.125   5.044   9.296
21625W        W22106   8.494   4.858   7.418
21626W        W22107   7.297   6.617   9.963
21627W        W22108   8.882   5.326   9.406
21628W        W22109   8.705   4.351   7.511
21629W        W22110   7.840   5.167   8.292
21630W        W22111   7.611   7.019   9.729
21631W        W22112  10.406   5.245   7.837
21632W        W22113  10.501   4.161  10.523
21633W        W22114   9.937   6.370   8.486
21634W        W22115   7.535   5.294  10.663
21635W        W22116  10.501   3.758   7.959
21636W        W22117  10.021   6.233   7.970
21637W        W22118   8.923   5.291   8.055
21638W        W22119  10.110   4.095   7.578
21639W        W22120  10.175   4.702   9.764
21640W        W22121   7.884   5.295   8.971
21641W        W22122   9.941   4.854   8.585
21642W        W22123   8.964   4.233   9.281
21643W        W22124  10.926   6.144   9.792
21644W        W22125  10.844   4.131   9.353
21645W        W22126   7.383   6.961   8.729
21646W        W22127   7.892   6.148   8.265
21647W        W22128   7.807   3.765  10.818
21648W        W22129   8.926   6.618  10.920
21649W        W22130  10.681   5.586   8.710
21650W        W22131  10.035   5.763   7.590
21651W        W22132  10.187   6.006  10.839
21652W        W22133   9.002   3.716   8.119
21653W        W22134   9.715   4.585   8.978
21654W        W22135   7.401   6.172   9.310
21655W        W22136   8.654   4.134   7.951
21656W        W22137   8.458   5.618  10.800
21657W        W22138   9.452   4.599   8.514
21658W        W22139   9.657   6.009   9.636
21659W        W22140   7.811   6.614  10.071
21660W        W22141   8.402   6.597  10.794
21661W        W22142   8.253   4.394   7.808
21662W        W22143   9.770   4.536   8.133
21663W        W22144   9.728   6.644  10.370
21664W        W22145   8.413   5.236   8.969
21665W        W22146   7.676   5.723  10.431
21666W        W22147   9.671   5.985   9.119
21667W        W22148   8.107   5.634   8.361
21668W        W22149   8.478   6.641   9.756
21669W        W22150   8.856   4.060   8.797
21670W        W22151   7.467   6.044   7.727
21671W        W22152   8.986   4.995   7.597
21672W        W22153   7.632   5.544   8.616
21673W        W22154   8.922   4.186  10.080
21674W        W22155  10.594   3.895   7.507
21675W        W22156  10.687   5.641  10.606
21676W        W22157   9.341   6.898  10.758
21677W        W22158  10.899   5.992  10.280
21678W        W22159  10.307   6.790  10.891
21679W        W22160  10.905   5.868   8.243
21680W        W22161   9.435   5.135   8.756
21681W        W22162   9.202   3.747   8.646
21682W        W22163   8.760   4.472   9.708
21683W        W22164   8.460   3.841   9.177
21684W        W22165   7.523   6.663   7.725
21685W        W22166   9.339   6.027   8.443
21686W        W22167   8.214   6.822  10.322
21687W        W22168   7.691   5.645   8.018
21688W        W22169   7.576   4.188   9.017
21689W        W22170   7.376   4.007   8.094
21690W        W22171  10.040   5.213  10.021
21691W        W22172   9.917   4.599   7.593
21692W        W22173  10.434   6.271   9.241
21693W        W22174   8.507   6.859   7.983
21694W        W22175   9.789   3.762   7.413
21695W        W22176   7.589   7.022   9.154
21696W        W22177   9.786   4.780  10.789
21697W        W22178   7.769   4.310  10.788
21698W        W22179   7.500   4.910   8.121
21699W        W22180   8.191   4.899   7.846
21700W        W22181   9.954   5.226  10.663
21701W        W22182   8.297   5.507   9.372
21702W        W22183   9.771   3.793   8.492
21703W        W22184  10.116   6.686   9.932
21704W        W22185   9.719   5.815   8.637
21705W        W22186   9.181   4.040   7.708
21706W        W22187  10.862   3.668   8.430
21707W        W22188   8.550   5.303   7.593
21708W        W22189  10.716   4.640   8.583
21709W        W22190   9.408   5.810   7.460
21710W        W22191  10.344   6.010  10.208
21711W        W22192   9.998   6.711   7.675
21712W        W22193   8.613   4.386  10.581
21713W        W22194   8.433   4.970   9.822
21714W        W22195  10.525   6.465  10.099
21715W        W22196   9.625   4.415  10.476
21716W        W22197   7.469   4.886  10.253
21717W        W22198   9.229   5.363   9.979
21718W        W22199   7.586   6.121   8.636
21719W        W22200   7.733   5.418   9.526
21720W        W22201  10.050   5.704   9.876
21721W        W22202   9.822   7.084  10.687
21722W        W22203   9.718   4.823  10.240
21723W        W22204   9.995   6.877   8.645
21724W        W22205   8.997   6.597   9.968
21725W        W22206  10.287   6.123   9.656
21726W        W22207   9.337   6.195  10.793
21727W        W22208   7.942   6.148   9.132
21728W        W22209  10.288   5.907   8.777
21729W        W22210   9.929   6.973   9.528
21730W        W22211   7.907   6.702   9.398
21731W        W22212   8.928   4.754  10.608
21732W        W22213   9.379   6.920   8.119
21733W        W22214   8.687   6.175  10.757
21734W        W22215   8.813   6.413   8.134
21735W        W22216   8.034   5.153   7.393
21736W        W22217   7.373   7.239  14.292
21737W        W22218   7.749   6.132  13.815
21738W        W22219  10.454   5.862  11.585
21739W        W22220  10.584   6.947  13.612
21740W        W22221   8.502   6.938  11.138
21741W        W22222   8.585   5.090  12.121
21742W        W22223   8.100   4.938  12.285
21743W        W22224   9.091   5.753  11.719
21744W        W22225   8.766   6.845  14.074
21745W        W22226   7.415   4.406  14.037
21746W        W22227   8.177   3.686  13.839
21747W        W22228   9.871   4.074  12.726
21748W        W22229   9.520   4.945  11.296
21749W        W22230  10.090   4.379  14.387
21750W        W22231   7.456   4.171  13.512
21751W        W22232   7.555   6.790  14.533
21752W        W22233   7.509   4.963  12.958
21753W        W22234   8.402   4.854  14.195
21754W        W22235  10.861   4.713  12.694
21755W        W22236  10.625   5.756  13.553
21756W        W22237   8.933   5.089  12.580
21757W        W22238   9.479   6.428  12.949
21758W        W22239   7.979   5.862  13.181
21759W        W22240   7.338   5.390  12.752
21760W        W22241   8.374   5.362  13.944
21761W        W22242  10.645   5.145  14.198
21762W        W22243   8.261   6.589  12.643
21763W        W22244   9.382   6.278  13.777
21764W        W22245   8.602   4.918  13.002
21765W        W22246   8.894   5.702  12.645
21766W        W22247   9.891   6.475  14.493
21767W        W22248   8.970   5.795  14.503
21768W        W22249   8.951   5.511  13.981
21769W        W22250   7.360   4.902  14.503
21770W        W22251  10.192   6.437  14.102
21771W        W22252   7.773   4.019  12.100
21772W        W22253   8.300   6.277  13.099
21773W        W22254  10.763   6.060  12.389
21774W        W22255  10.176   4.460  12.956
21775W        W22256  10.461   4.413  11.051
21776W        W22257  10.926   5.214  13.357
21777W        W22258   8.893   6.921  13.110
21778W        W22259  10.667   6.387  11.548
21779W        W22260   7.796   7.173  11.302
21780W        W22261   8.189   7.219  11.978
21781W        W22262   7.986   3.973  13.404
21782W        W22263  10.609   4.991  13.679
21783W        W22264  10.014   5.413  12.138
21784W        W22265   9.980   5.101  11.165
21785W        W22266   9.188   6.245  13.305
21786W        W22267   8.994   4.575  12.504
21787W        W22268   9.594   6.662  13.498
21788W        W22269  10.465   5.453  11.920
21789W        W22270   9.367   4.111  11.936
21790W        W22271   8.024   6.805  11.619
21791W        W22272   7.395   4.304  12.218
21792W        W22273  10.181   4.911  12.692
21793W        W22274   7.639   6.528  12.607
21794W        W22275   8.980   6.878  11.477
21795W        W22276  10.372   4.904  10.941
21796W        W22277   7.395   6.662  13.105
21797W        W22278   8.186   6.234  13.585
21798W        W22279   8.559   5.594  12.204
21799W        W22280   8.581   3.999  13.297
21800W        W22281  10.810   3.761  12.594
21801W        W22282   8.029   5.633  11.062
21802W        W22283   7.684   4.666  11.241
21803W        W22284   7.746   6.622  12.035
21804W        W22285   8.877   6.105  12.283
21805W        W22286  10.209   6.964  13.997
21806W        W22287   9.135   4.606  11.681
21807W        W22288  10.195   4.857  14.051
21808W        W22289  10.908   6.513  12.185
21809W        W22290   9.535   5.805  13.669
21810W        W22291   7.301   5.356  11.875
21811W        W22292   8.412   5.771  13.448
21812W        W22293   9.616   5.035  11.826
21813W        W22294   9.493   5.525  11.930
21814W        W22295   7.836   4.945  13.404
21815W        W22296   7.821   4.821  14.326
21816W        W22297   7.711   3.738  12.485
21817W        W22298   9.479   4.085  13.046
21818W        W22299   9.127   4.270  14.209
21819W        W22300   9.482   4.419  11.387
21820W        W22301  10.665   6.812  14.141
21821W        W22302   9.632   3.893  14.180
21822W        W22303  10.651   6.194  14.302
21823W        W22304  10.081   4.361  13.898
21824W        W22305   9.881   4.299  12.168
21825W        W22306  10.274   5.433  14.572
21826W        W22307   8.014   7.009  12.558
21827W        W22308   8.672   4.726  11.544
21828W        W22309   8.241   4.010  14.208
21829W        W22310  10.293   4.494  11.889
21830W        W22311  10.660   4.976  11.834
21831W        W22312   8.403   7.193  14.305
21832W        W22313   8.329   3.729  11.540
21833W        W22314  10.650   4.263  12.575
21834W        W22315  10.800   6.512  11.020
21835W        W22316   7.707   5.715  12.722
21836W        W22317   9.624   4.302  10.952
21837W        W22318  10.758   6.634  12.672
21838W        W22319  10.797   3.828  13.422
21839W        W22320   9.242   5.040  13.976
21840W        W22321   9.335   6.379  11.679
21841W        W22322   9.735   5.673  14.419
21842W        W22323   9.409   3.650  12.728
21843W        W22324   8.021   4.553  12.791
21844W        W22325   7.575   5.753  13.565
21845W        W22326   9.434   6.946  12.271
21846W        W22327  10.628   4.543  13.143
21847W        W22328   9.265   6.890  13.910
21848W        W22329  10.608   5.949  11.115
21849W        W22330   9.043   5.432  12.176
21850W        W22331  10.895   3.943  13.917
21851W        W22332   9.044   5.778  13.511
21852W        W22333   9.261   4.664  12.956
21853W        W22334  10.113   4.962  11.794
21854W        W22335  10.400   4.695  11.436
21855W        W22336  10.209   6.735  11.825
21856W        W22337  10.043   6.338  12.621
21857W        W22338   9.939   5.417  11.599
21858W        W22339   9.372   5.627  12.585
21859W        W22340  10.253   5.415  12.652
21860W        W22341   7.628   4.430  13.076
21861W        W22342  10.406   5.482  13.903
21862W        W22343  10.757   7.100  13.049
21863W        W22344   8.687   6.544  12.451
21864W        W22345   9.694   7.077  13.775
21865W        W22346   9.688   4.407  13.539
21866W        W22347   8.895   7.115  13.600
21867W        W22348  10.592   4.069  12.066
21868W        W22349  10.383   5.388  13.367
21869W        W22350   7.366   4.709  13.405
21870W        W22351  10.226   4.504  12.423
21871W        W22352  10.637   4.655  14.200
21872W        W22353   9.522   6.354  12.418
21873W        W22354   8.778   6.945  12.031
21874W        W22355   7.893   4.125  11.289
21875W        W22356   8.997   3.779  13.099
21876W        W22357   8.025   6.899  10.947
21877W        W22358   8.399   5.365  11.698
21878W        W22359   9.053   5.994  14.011
21879W        W22360   8.883   4.352  12.001
21880W        W22361  10.239   3.949  12.429
21881W        W22362   9.959   7.231  12.757
21882W        W22363   9.371   6.879  13.097
21883W        W22364   8.767   5.916  13.058
21884W        W22365  10.537   6.639  13.184
21885W        W22366   8.231   4.142  11.953
21886W        W22367   8.753   6.439  12.913
21887W        W22368   8.236   4.370  10.978
21888W        W22369   9.037   4.979  13.372
21889W        W22370   9.885   3.845  13.242
21890W        W22371   7.305   5.688  13.127
21891W        W22372   9.009   5.506  11.285
21892W        W22373   8.277   3.821  11.055
21893W        W22374   9.015   4.902  12.106
21894W        W22375   9.985   3.878  13.805
21895W        W22376   8.573   5.890  13.914
21896W        W22377   9.377   5.672  14.131
21897W        W22378   9.994   5.702  14.024
21898W        W22379   9.278   3.842  14.529
21899W        W22380   8.500   4.458  12.922
21900W        W22381   7.926   4.414  12.320
21901W        W22382   7.712   7.126  11.996
21902W        W22383   9.044   6.456  14.121
21903W        W22384   8.079   5.941  11.480
21904W        W22385   9.759   5.326  12.701
21905W        W22386  10.039   5.125  13.100
21906W        W22387   9.244   5.799  13.034
21907W        W22388   9.714   6.173  11.166
21908W        W22389   9.386   4.194  12.494
21909W        W22390  10.865   4.472  11.762
21910W        W22391   7.359   7.061  13.793
21911W        W22392   7.776   6.287  13.325
21912W        W22393   7.343   7.133  11.557
21913W        W22394   9.242   4.403  13.363
21914W        W22395   8.605   6.426  11.212
21915W        W22396  10.510   6.808  11.398
21916W        W22397   9.485   5.461  11.412
21917W        W22398   8.328   4.652  11.929
21918W        W22399   9.160   4.562  10.981
21919W        W22400   9.744   6.127  14.159
21920W        W22401  10.097   4.033  11.776
21921W        W22402   7.427   3.881  11.224
21922W        W22403   8.713   6.200  13.514
21923W        W22404   8.512   6.116  12.606
21924W        W22405   8.254   6.068  11.004
21925W        W22406   7.495   6.309  11.772
21926W        W22407   7.999   5.379  14.214
21927W        W22408   8.703   3.939  14.400
21928W        W22409   9.412   4.081  13.756
21929W        W22410   8.607   3.849  12.037
21930W        W22411   9.666   3.926  11.542
21931W        W22412   7.611   3.858  13.119
21932W        W22413   7.659   4.821  12.489
21933W        W22414  10.348   3.929  12.895
21934W        W22415   7.770   4.427  11.709
21935W        W22416  10.341   4.115  13.325
21936W        W22417  10.737   5.318  11.010
21937W        W22418   8.029   4.076  12.829
21938W        W22419   9.143   4.648  13.769
21939W        W22420   7.291   4.338  11.247
21940W        W22421   8.077   5.727  13.808
21941W        W22422   9.435   5.125  12.987
21942W        W22423   9.302   7.204  11.283
21943W        W22424   7.448   5.711  10.980
21944W        W22425   8.183   6.122  14.106
21945W        W22426   7.704   5.289  13.737
21946W        W22427   8.695   5.394  13.531
21947W        W22428  10.463   3.753  13.793
21948W        W22429  10.861   5.363  13.784
21949W        W22430  10.849   5.563  11.470
21950W        W22431   9.712   5.895  11.569
21951W        W22432  10.186   7.195  11.264
21952W        W22433   9.363   5.185  14.406
21953W        W22434   7.693   6.152  14.446
21954W        W22435  10.899   4.074  14.398
21955W        W22436  10.617   5.002  13.019
21956W        W22437   8.925   7.132  14.496
21957W        W22438   8.780   3.761  11.223
21958W        W22439  10.319   6.360  11.166
21959W        W22440   8.088   4.453  14.052
21960W        W22441   8.522   6.447  13.914
21961W        W22442  10.648   4.438  13.712
21962W        W22443   9.859   7.097  11.680
21963W        W22444  10.098   5.716  13.047
21964W        W22445   8.348   4.132  13.714
21965W        W22446   8.817   5.201  14.471
21966W        W22447   8.320   6.380  11.665
21967W        W22448  10.075   5.878  11.929
21968W        W22449   7.843   4.504  13.653
21969W        W22450   9.172   6.566  12.117
21970W        W22451  10.922   5.126  12.298
21971W        W22452   9.144   3.759  14.017
21972W        W22453   9.924   6.464  13.096
21973W        W22454  10.227   6.808  12.804
21974W        W22455   9.446   6.610  11.232
21975W        W22456   7.456   6.502  14.074
21976W        W22457   8.199   4.494  13.312
21977W        W22458   8.169   3.842  12.422
21978W        W22459   9.790   4.684  13.114
21979W        W22460   8.588   5.855  11.314
21980W        W22461  10.586   5.797  12.813
21981W        W22462   7.913   6.555  14.236
21982W        W22463  10.300   7.237  12.033
21983W        W22464   8.399   4.257  12.478
21984W        W22465   8.168   5.750  12.568
21985W        W22466   8.481   7.161  13.318
21986W        W22467  10.548   7.257  14.350
21987W        W22468   9.707   5.445  13.283
21988W        W22469  10.690   6.901  11.895
21989W        W22470  10.527   4.225  11.514
21990W        W22471   8.666   3.744  13.917
21991W        W22472  10.372   6.546  12.375
21992W        W22473  10.401   5.102  12.280
21993W        W22474   8.518   4.775  12.496
21994W        W22475   8.763   5.037  13.820
21995W        W22476   9.874   6.190  13.683
21996W        W22477   8.524   4.644  13.795
21997W        W22478   8.503   7.110  12.411
21998W        W22479   7.820   7.069  14.045
21999W        W22480   7.932   6.430  11.175
22000W        W22481  10.449   6.188  11.985
22001W        W22482   8.053   4.980  13.871
22002W        W22483  10.826   4.910  11.352
22003W        W22484   8.571   5.967  11.823
22004W        W22485   9.670   5.349  13.904
22005W        W22486   9.561   4.977  13.448
22006W        W22487   8.121   5.349  13.477
22007W        W22488  10.331   7.237  13.306
22008W        W22489  10.122   3.871  14.300
22009W        W22490   7.786   4.021  13.887
22010W        W22491   8.125   5.044  12.940
22011W        W22492   8.494   4.858  11.062
22012W        W22493   7.297   6.617  13.607
22013W        W22494   8.882   5.326  13.050
22014W        W22495   8.705   4.351  11.155
22015W        W22496   7.840   5.167  11.936
22016W        W22497   7.611   7.019  13.373
22017W        W22498  10.406   5.245  11.481
22018W        W22499  10.501   4.161  14.167
22019W        W22500   9.937   6.370  12.130
22020W        W22501   7.535   5.294  14.307
22021W        W22502  10.501   3.758  11.603
22022W        W22503  10.021   6.233  11.614
22023W        W22504   8.923   5.291  11.699
22024W        W22505  10.110   4.095  11.222
22025W        W22506  10.175   4.702  13.408
22026W        W22507   7.884   5.295  12.615
22027W        W22508   8.178   6.234  12.264
22028W        W22509   9.941   4.854  12.229
22029W        W22510   8.964   4.233  12.925
22030W        W22511  10.926   6.144  13.436
22031W        W22512  10.844   4.131  12.997
22032W        W22513   7.383   6.961  12.373
22033W        W22514   7.892   6.148  11.909
22034W        W22515   7.807   3.765  14.462
22035W        W22516   8.926   6.618  14.564
22036W        W22517  10.681   5.586  12.354
22037W        W22518  10.035   5.763  11.234
22038W        W22519   9.330   7.284  13.446
22039W        W22520  10.187   6.006  14.483
22040W        W22521   9.002   3.716  11.763
22041W        W22522   9.715   4.585  12.622
22042W        W22523   7.401   6.172  12.954
22043W        W22524   8.654   4.134  11.595
22044W        W22525   8.458   5.618  14.444
22045W        W22526   9.452   4.599  12.158
22046W        W22527   9.657   6.009  13.280
22047W        W22528   7.811   6.614  13.715
22048W        W22529   8.402   6.597  14.438
22049W        W22530   8.253   4.394  11.452
22050W        W22531   9.770   4.536  11.777
22051W        W22532   9.728   6.644  14.014
22052W        W22533   8.413   5.236  12.613
22053W        W22534   8.068   6.934  13.478
22054W        W22535  10.813   7.051  11.079
22055W        W22536   7.676   5.723  14.075
22056W        W22537   9.671   5.985  12.763
22057W        W22538   8.107   5.634  12.005
22058W        W22539   8.478   6.641  13.400
22059W        W22540   8.856   4.060  12.441
22060W        W22541   7.467   6.044  11.371
22061W        W22542   8.986   4.995  11.241
22062W        W22543   7.632   5.544  12.260
22063W        W22544   8.922   4.186  13.724
22064W        W22545  10.594   3.895  11.151
22065W        W22546  10.687   5.641  14.250
22066W        W22547   9.341   6.898  14.402
22067W        W22548  10.899   5.992  13.924
22068W        W22549  10.307   6.790  14.535
22069W        W22550   8.046   7.246  13.013
22070W        W22551  10.905   5.868  11.887
22071W        W22552   9.435   5.135  12.400
22072W        W22553   9.202   3.747  12.290
22073W        W22554   8.261   6.731  12.127
22074W        W22555   8.760   4.472  13.352
22075W        W22556   8.460   3.841  12.821
22076W        W22557   9.339   6.027  12.087
22077W        W22558   8.214   6.822  13.966
22078W        W22559   7.691   5.645  11.662
22079W        W22560   7.576   4.188  12.661
22080W        W22561   9.124   6.153  12.718
22081W        W22562   7.376   4.007  11.738
22082W        W22563  10.040   5.213  13.665
22083W        W22564   9.917   4.599  11.237
22084W        W22565  10.434   6.271  12.885
22085W        W22566   9.095   6.755  12.716
22086W        W22567   8.507   6.859  11.627
22087W        W22568   9.789   3.762  11.057
22088W        W22569   7.589   7.022  12.798
22089W        W22570   9.786   4.780  14.433
22090W        W22571   7.769   4.310  14.432
22091W        W22572   7.500   4.910  11.765
22092W        W22573   8.191   4.899  11.490
22093W        W22574   9.954   5.226  14.307
22094W        W22575   8.297   5.507  13.016
22095W        W22576   9.771   3.793  12.136
22096W        W22577   8.902   7.224  12.639
22097W        W22578  10.116   6.686  13.576
22098W        W22579   9.700   6.835  12.687
22099W        W22580   9.719   5.815  12.281
22100W        W22581   9.181   4.040  11.352
22101W        W22582  10.862   3.668  12.074
22102W        W22583   8.550   5.303  11.237
22103W        W22584  10.716   4.640  12.227
22104W        W22585   9.408   5.810  11.104
22105W        W22586  10.344   6.010  13.852
22106W        W22587   9.998   6.711  11.319
22107W        W22588   8.613   4.386  14.225
22108W        W22589   8.433   4.970  13.466
22109W        W22590  10.525   6.465  13.743
22110W        W22591   9.625   4.415  14.120
22111W        W22592   7.469   4.886  13.897
22112W        W22593   9.229   5.363  13.623
22113W        W22594   7.586   6.121  12.280
22114W        W22595   7.733   5.418  13.170
22115W        W22596  10.050   5.704  13.520
22116W        W22597   9.822   7.084  14.331
22117W        W22598   9.718   4.823  13.884
22118W        W22599   9.995   6.877  12.289
22119W        W22600   8.997   6.597  13.612
22120W        W22601   8.482   6.952  12.881
22121W        W22602  10.287   6.123  13.300
22122W        W22603   9.337   6.195  14.437
22123W        W22604   7.942   6.148  12.776
22124W        W22605  10.288   5.907  12.421
22125W        W22606   9.929   6.973  13.172
22126W        W22607   7.907   6.702  13.042
22127W        W22608   8.928   4.754  14.252
22128W        W22609   9.379   6.920  11.763
22129W        W22610   8.687   6.175  14.401
22130W        W22611   8.813   6.413  11.778
22131W        W22612   8.034   5.153  11.037
22132W        W22613   7.749   6.132  17.459
22133W        W22614  10.454   5.862  15.229
22134W        W22615  10.584   6.947  17.256
22135W        W22616   8.502   6.938  14.782
22136W        W22617   8.585   5.090  15.765
22137W        W22618   8.100   4.938  15.929
22138W        W22619   9.091   5.753  15.363
22139W        W22620   8.766   6.845  17.718
22140W        W22621   7.415   4.406  17.681
22141W        W22622   8.177   3.686  17.483
22142W        W22623   9.871   4.074  16.370
22143W        W22624   9.520   4.945  14.940
22144W        W22625   7.456   4.171  17.156
22145W        W22626   9.077   6.180  14.909
22146W        W22627   7.509   4.963  16.602
22147W        W22628  10.861   4.713  16.338
22148W        W22629  10.625   5.756  17.197
22149W        W22630   8.933   5.089  16.224
22150W        W22631   9.479   6.428  16.593
22151W        W22632   7.979   5.862  16.825
22152W        W22633   7.338   5.390  16.396
22153W        W22634   8.374   5.362  17.588
22154W        W22635   8.261   6.589  16.287
22155W        W22636   9.382   6.278  17.421
22156W        W22637   8.602   4.918  16.646
22157W        W22638   8.894   5.702  16.289
22158W        W22639   8.951   5.511  17.625
22159W        W22640  10.192   6.437  17.746
22160W        W22641   7.773   4.019  15.744
22161W        W22642   8.300   6.277  16.743
22162W        W22643  10.763   6.060  16.033
22163W        W22644  10.176   4.460  16.600
22164W        W22645  10.461   4.413  14.695
22165W        W22646  10.926   5.214  17.001
22166W        W22647   8.893   6.921  16.754
22167W        W22648  10.667   6.387  15.192
22168W        W22649   7.796   7.173  14.946
22169W        W22650   8.189   7.219  15.622
22170W        W22651   7.986   3.973  17.048
22171W        W22652  10.609   4.991  17.323
22172W        W22653  10.014   5.413  15.782
22173W        W22654   9.980   5.101  14.809
22174W        W22655   9.188   6.245  16.949
22175W        W22656   8.994   4.575  16.148
22176W        W22657   9.594   6.662  17.142
22177W        W22658  10.465   5.453  15.564
22178W        W22659   9.367   4.111  15.580
22179W        W22660   8.024   6.805  15.263
22180W        W22661   7.395   4.304  15.862
22181W        W22662  10.181   4.911  16.336
22182W        W22663   7.639   6.528  16.251
22183W        W22664   8.980   6.878  15.121
22184W        W22665  10.372   4.904  14.585
22185W        W22666   7.395   6.662  16.749
22186W        W22667   8.186   6.234  17.229
22187W        W22668   8.559   5.594  15.848
22188W        W22669   8.581   3.999  16.941
22189W        W22670  10.810   3.761  16.238
22190W        W22671   8.029   5.633  14.706
22191W        W22672   7.684   4.666  14.885
22192W        W22673   7.746   6.622  15.679
22193W        W22674   8.877   6.105  15.927
22194W        W22675  10.209   6.964  17.641
22195W        W22676   9.135   4.606  15.325
22196W        W22677  10.518   7.004  16.097
22197W        W22678  10.908   6.513  15.829
22198W        W22679   9.535   5.805  17.313
22199W        W22680   7.301   5.356  15.519
22200W        W22681   8.412   5.771  17.092
22201W        W22682   9.616   5.035  15.470
22202W        W22683   9.493   5.525  15.574
22203W        W22684   7.836   4.945  17.048
22204W        W22685   7.711   3.738  16.129
22205W        W22686   9.479   4.085  16.690
22206W        W22687   9.482   4.419  15.031
22207W        W22688  10.665   6.812  17.785
22208W        W22689   9.632   3.893  17.824
22209W        W22690  10.081   4.361  17.542
22210W        W22691   9.881   4.299  15.812
22211W        W22692   8.014   7.009  16.202
22212W        W22693   8.672   4.726  15.188
22213W        W22694  10.293   4.494  15.533
22214W        W22695  10.660   4.976  15.478
22215W        W22696  10.650   4.263  16.219
22216W        W22697  10.800   6.512  14.664
22217W        W22698   7.707   5.715  16.366
22218W        W22699   9.624   4.302  14.596
22219W        W22700  10.758   6.634  16.316
22220W        W22701  10.797   3.828  17.066
22221W        W22702   9.242   5.040  17.620
22222W        W22703   9.409   3.650  16.372
22223W        W22704   8.021   4.553  16.435
22224W        W22705   7.575   5.753  17.209
22225W        W22706   9.434   6.946  15.915
22226W        W22707  10.628   4.543  16.787
22227W        W22708   9.265   6.890  17.554
22228W        W22709  10.608   5.949  14.759
22229W        W22710   9.043   5.432  15.820
22230W        W22711  10.895   3.943  17.561
22231W        W22712   9.044   5.778  17.155
22232W        W22713   9.261   4.664  16.600
22233W        W22714  10.113   4.962  15.438
22234W        W22715  10.400   4.695  15.080
22235W        W22716  10.209   6.735  15.469
22236W        W22717  10.043   6.338  16.265
22237W        W22718   9.939   5.417  15.243
22238W        W22719   9.372   5.627  16.229
22239W        W22720  10.253   5.415  16.296
22240W        W22721   7.628   4.430  16.720
22241W        W22722  10.406   5.482  17.547
22242W        W22723  10.757   7.100  16.693
22243W        W22724   8.687   6.544  16.095
22244W        W22725   9.694   7.077  17.419
22245W        W22726   9.688   4.407  17.183
22246W        W22727   8.895   7.115  17.244
22247W        W22728  10.592   4.069  15.710
22248W        W22729  10.383   5.388  17.011
22249W        W22730   7.366   4.709  17.049
22250W        W22731  10.226   4.504  16.067
22251W        W22732   9.522   6.354  16.062
22252W        W22733   8.778   6.945  15.675
22253W        W22734   7.893   4.125  14.933
22254W        W22735   8.997   3.779  16.743
22255W        W22736   8.025   6.899  14.591
22256W        W22737   8.399   5.365  15.342
22257W        W22738   9.053   5.994  17.655
22258W        W22739   8.883   4.352  15.645
22259W        W22740  10.239   3.949  16.073
22260W        W22741   9.959   7.231  16.401
22261W        W22742   9.371   6.879  16.741
22262W        W22743   8.767   5.916  16.702
22263W        W22744  10.537   6.639  16.828
22264W        W22745   8.231   4.142  15.597
22265W        W22746   8.753   6.439  16.557
22266W        W22747   8.236   4.370  14.622
22267W        W22748   9.037   4.979  17.016
22268W        W22749   9.885   3.845  16.886
22269W        W22750   7.305   5.688  16.771
22270W        W22751   9.009   5.506  14.929
22271W        W22752   8.277   3.821  14.699
22272W        W22753   9.015   4.902  15.750
22273W        W22754   9.985   3.878  17.449
22274W        W22755   8.573   5.890  17.558
22275W        W22756   9.994   5.702  17.668
22276W        W22757   8.500   4.458  16.566
22277W        W22758   7.926   4.414  15.964
22278W        W22759   7.712   7.126  15.640
22279W        W22760   9.044   6.456  17.765
22280W        W22761   8.079   5.941  15.124
22281W        W22762   9.759   5.326  16.345
22282W        W22763  10.039   5.125  16.744
22283W        W22764   9.244   5.799  16.678
22284W        W22765   9.714   6.173  14.810
22285W        W22766   9.386   4.194  16.138
22286W        W22767  10.865   4.472  15.406
22287W        W22768   7.359   7.061  17.437
22288W        W22769   7.776   6.287  16.969
22289W        W22770   7.343   7.133  15.201
22290W        W22771   9.242   4.403  17.007
22291W        W22772   8.605   6.426  14.856
22292W        W22773  10.510   6.808  15.042
22293W        W22774   9.485   5.461  15.056
22294W        W22775   8.328   4.652  15.573
22295W        W22776   9.160   4.562  14.625
22296W        W22777  10.097   4.033  15.420
22297W        W22778   7.427   3.881  14.868
22298W        W22779   8.713   6.200  17.158
22299W        W22780   8.512   6.116  16.250
22300W        W22781   8.254   6.068  14.648
22301W        W22782   7.495   6.309  15.416
22302W        W22783   9.412   4.081  17.400
22303W        W22784   9.666   3.926  15.186
22304W        W22785   7.611   3.858  16.763
22305W        W22786   7.659   4.821  16.133
22306W        W22787  10.348   3.929  16.539
22307W        W22788   7.770   4.427  15.353
22308W        W22789  10.341   4.115  16.969
22309W        W22790  10.737   5.318  14.654
22310W        W22791   8.029   4.076  16.473
22311W        W22792   9.143   4.648  17.413
22312W        W22793   7.291   4.338  14.891
22313W        W22794   8.077   5.727  17.452
22314W        W22795   9.435   5.125  16.631
22315W        W22796   9.302   7.204  14.927
22316W        W22797   7.448   5.711  14.624
22317W        W22798   7.704   5.289  17.381
22318W        W22799  10.463   3.753  17.437
22319W        W22800  10.861   5.363  17.428
22320W        W22801  10.849   5.563  15.114
22321W        W22802   9.712   5.895  15.213
22322W        W22803  10.186   7.195  14.908
22323W        W22804  10.617   5.002  16.663
22324W        W22805   8.780   3.761  14.867
22325W        W22806  10.319   6.360  14.810
22326W        W22807   8.522   6.447  17.558
22327W        W22808  10.648   4.438  17.356
22328W        W22809   9.859   7.097  15.324
22329W        W22810  10.098   5.716  16.691
22330W        W22811   8.348   4.132  17.358
22331W        W22812   8.320   6.380  15.309
22332W        W22813  10.075   5.878  15.573
22333W        W22814   7.843   4.504  17.297
22334W        W22815   9.172   6.566  15.761
22335W        W22816  10.922   5.126  15.942
22336W        W22817   9.144   3.759  17.661
22337W        W22818   9.924   6.464  16.740
22338W        W22819  10.227   6.808  16.448
22339W        W22820   9.446   6.610  14.876
22340W        W22821   7.456   6.502  17.718
22341W        W22822   8.199   4.494  16.956
22342W        W22823   8.169   3.842  16.066
22343W        W22824   9.790   4.684  16.758
22344W        W22825   8.588   5.855  14.958
22345W        W22826  10.586   5.797  16.457
22346W        W22827   8.399   4.257  16.122
22347W        W22828   8.168   5.750  16.212
22348W        W22829   8.481   7.161  16.962
22349W        W22830   9.707   5.445  16.927
22350W        W22831   7.556   5.243  14.842
22351W        W22832  10.690   6.901  15.539
22352W        W22833  10.527   4.225  15.158
22353W        W22834   8.666   3.744  17.561
22354W        W22835  10.372   6.546  16.019
22355W        W22836  10.401   5.102  15.924
22356W        W22837   8.518   4.775  16.140
22357W        W22838   8.763   5.037  17.464
22358W        W22839   9.874   6.190  17.327
22359W        W22840   8.524   4.644  17.439
22360W        W22841   8.503   7.110  16.055
22361W        W22842   7.932   6.430  14.819
22362W        W22843  10.449   6.188  15.629
22363W        W22844   8.053   4.980  17.515
22364W        W22845  10.826   4.910  14.996
22365W        W22846   8.571   5.967  15.467
22366W        W22847   9.670   5.349  17.548
22367W        W22848   9.561   4.977  17.092
22368W        W22849   8.121   5.349  17.121
22369W        W22850  10.331   7.237  16.950
22370W        W22851   7.786   4.021  17.531
22371W        W22852   8.125   5.044  16.584
22372W        W22853   8.494   4.858  14.706
22373W        W22854   7.297   6.617  17.251
22374W        W22855   8.882   5.326  16.694
22375W        W22856   8.705   4.351  14.799
22376W        W22857   7.840   5.167  15.580
22377W        W22858   7.611   7.019  17.017
22378W        W22859  10.406   5.245  15.125
22379W        W22860   9.937   6.370  15.774
22380W        W22861  10.501   3.758  15.247
22381W        W22862  10.021   6.233  15.258
22382W        W22863   8.923   5.291  15.343
22383W        W22864  10.110   4.095  14.866
22384W        W22865  10.175   4.702  17.052
22385W        W22866   7.884   5.295  16.259
22386W        W22867   8.178   6.234  15.908
22387W        W22868   9.941   4.854  15.873
22388W        W22869   8.964   4.233  16.569
22389W        W22870  10.926   6.144  17.080
22390W        W22871  10.844   4.131  16.641
22391W        W22872   7.383   6.961  16.017
22392W        W22873   7.892   6.148  15.553
22393W        W22874  10.681   5.586  15.998
22394W        W22875  10.035   5.763  14.878
22395W        W22876   9.330   7.284  17.090
22396W        W22877   9.002   3.716  15.407
22397W        W22878   9.715   4.585  16.266
22398W        W22879   7.401   6.172  16.598
22399W        W22880   8.654   4.134  15.239
22400W        W22881   9.452   4.599  15.802
22401W        W22882   9.657   6.009  16.924
22402W        W22883   7.811   6.614  17.359
22403W        W22884   8.253   4.394  15.096
22404W        W22885   9.770   4.536  15.421
22405W        W22886   9.728   6.644  17.658
22406W        W22887   8.413   5.236  16.257
22407W        W22888   8.068   6.934  17.122
22408W        W22889  10.813   7.051  14.723
22409W        W22890   9.671   5.985  16.407
22410W        W22891   8.478   6.641  17.044
22411W        W22892   8.856   4.060  16.085
22412W        W22893   7.467   6.044  15.015
22413W        W22894   8.986   4.995  14.885
22414W        W22895   7.632   5.544  15.904
22415W        W22896   8.922   4.186  17.368
22416W        W22897  10.594   3.895  14.795
22417W        W22898  10.899   5.992  17.568
22418W        W22899   8.046   7.246  16.657
22419W        W22900  10.905   5.868  15.531
22420W        W22901   9.435   5.135  16.044
22421W        W22902   9.202   3.747  15.934
22422W        W22903   8.760   4.472  16.996
22423W        W22904   8.460   3.841  16.465
22424W        W22905   7.523   6.663  15.013
22425W        W22906   9.339   6.027  15.731
22426W        W22907   8.214   6.822  17.610
22427W        W22908   7.691   5.645  15.306
22428W        W22909   7.576   4.188  16.305
22429W        W22910   9.124   6.153  16.362
22430W        W22911   7.376   4.007  15.382
22431W        W22912  10.040   5.213  17.309
22432W        W22913   9.917   4.599  14.881
22433W        W22914  10.434   6.271  16.529
22434W        W22915   9.095   6.755  16.360
22435W        W22916   8.507   6.859  15.271
22436W        W22917   9.789   3.762  14.701
22437W        W22918   7.589   7.022  16.442
22438W        W22919   7.500   4.910  15.409
22439W        W22920   8.191   4.899  15.134
22440W        W22921   8.297   5.507  16.660
22441W        W22922   9.771   3.793  15.780
22442W        W22923   8.902   7.224  16.283
22443W        W22924  10.116   6.686  17.220
22444W        W22925   9.700   6.835  16.331
22445W        W22926   9.719   5.815  15.925
22446W        W22927   9.181   4.040  14.996
22447W        W22928  10.862   3.668  15.718
22448W        W22929   8.550   5.303  14.881
22449W        W22930  10.716   4.640  15.871
22450W        W22931   9.408   5.810  14.748
22451W        W22932  10.344   6.010  17.496
22452W        W22933   9.998   6.711  14.963
22453W        W22934   8.433   4.970  17.110
22454W        W22935  10.525   6.465  17.387
22455W        W22936   7.469   4.886  17.541
22456W        W22937   9.229   5.363  17.267
22457W        W22938   7.586   6.121  15.924
22458W        W22939   7.733   5.418  16.814
22459W        W22940  10.050   5.704  17.164
22460W        W22941   9.822   7.084  17.975
22461W        W22942   9.718   4.823  17.528
22462W        W22943   9.995   6.877  15.933
22463W        W22944   8.997   6.597  17.256
22464W        W22945   8.482   6.952  16.525
22465W        W22946  10.287   6.123  16.944
22466W        W22947   7.942   6.148  16.420
22467W        W22948  10.288   5.907  16.065
22468W        W22949   9.929   6.973  16.816
22469W        W22950   7.907   6.702  16.686
22470W        W22951   9.379   6.920  15.407
22471W        W22952   8.813   6.413  15.422
22472W        W22953   8.034   5.153  14.681
22473W        W22954   7.749   9.777   2.882
22474W        W22955  10.454   9.507   0.652
22475W        W22956  10.584  10.592   2.679
22476W        W22957   8.502  10.583   0.205
22477W        W22958   8.585   8.735   1.188
22478W        W22959   8.100   8.583   1.352
22479W        W22960   9.091   9.398   0.786
22480W        W22961   8.766  10.490   3.141
22481W        W22962   7.415   8.051   3.104
22482W        W22963   8.177   7.331   2.906
22483W        W22964   9.871   7.719   1.793
22484W        W22965   9.520   8.590   0.363
22485W        W22966  10.090   8.024   3.454
22486W        W22967   7.456   7.816   2.579
22487W        W22968   7.555  10.435   3.600
22488W        W22969   9.077   9.825   0.332
22489W        W22970   7.509   8.608   2.025
22490W        W22971   8.402   8.499   3.262
22491W        W22972  10.861   8.358   1.761
22492W        W22973  10.625   9.401   2.620
22493W        W22974   8.933   8.734   1.647
22494W        W22975   9.479  10.073   2.016
22495W        W22976   7.979   9.507   2.248
22496W        W22977   7.338   9.035   1.819
22497W        W22978   8.374   9.007   3.011
22498W        W22979  10.645   8.790   3.265
22499W        W22980   8.261  10.234   1.710
22500W        W22981   9.382   9.923   2.844
22501W        W22982   8.602   8.563   2.069
22502W        W22983   8.894   9.347   1.712
22503W        W22984   9.891  10.120   3.560
22504W        W22985   8.970   9.440   3.570
22505W        W22986   8.951   9.156   3.048
22506W        W22987   7.360   8.547   3.570
22507W        W22988  10.192  10.082   3.169
22508W        W22989   7.773   7.664   1.167
22509W        W22990   8.300   9.922   2.166
22510W        W22991  10.763   9.705   1.456
22511W        W22992  10.176   8.105   2.023
22512W        W22993  10.461   8.058   0.118
22513W        W22994  10.926   8.859   2.424
22514W        W22995   8.893  10.566   2.177
22515W        W22996  10.667  10.032   0.615
22516W        W22997   7.796  10.818   0.369
22517W        W22998   8.189  10.864   1.045
22518W        W22999   7.986   7.618   2.471
22519W        W23000  10.609   8.636   2.746
22520W        W23001  10.014   9.058   1.205
22521W        W23002   9.980   8.746   0.232
22522W        W23003   9.188   9.890   2.372
22523W        W23004   8.994   8.220   1.571
22524W        W23005   9.594  10.307   2.565
22525W        W23006  10.465   9.098   0.987
22526W        W23007   9.367   7.756   1.003
22527W        W23008   8.024  10.450   0.686
22528W        W23009   7.395   7.949   1.285
22529W        W23010  10.181   8.556   1.759
22530W        W23011   7.639  10.173   1.674
22531W        W23012   8.980  10.523   0.544
22532W        W23013  10.372   8.549   0.008
22533W        W23014   7.395  10.307   2.172
22534W        W23015   8.186   9.879   2.652
22535W        W23016   8.559   9.239   1.271
22536W        W23017   8.581   7.644   2.364
22537W        W23018  10.810   7.406   1.661
22538W        W23019   8.029   9.278   0.129
22539W        W23020   7.684   8.311   0.308
22540W        W23021   7.746  10.267   1.102
22541W        W23022   8.877   9.750   1.350
22542W        W23023  10.209  10.609   3.064
22543W        W23024   9.135   8.251   0.748
22544W        W23025  10.518  10.649   1.520
22545W        W23026  10.195   8.502   3.118
22546W        W23027  10.908  10.158   1.252
22547W        W23028   9.535   9.450   2.736
22548W        W23029   7.301   9.001   0.942
22549W        W23030   8.412   9.416   2.515
22550W        W23031   9.616   8.680   0.893
22551W        W23032   9.493   9.170   0.997
22552W        W23033   7.836   8.590   2.471
22553W        W23034   7.821   8.466   3.393
22554W        W23035   7.711   7.383   1.552
22555W        W23036   9.479   7.730   2.113
22556W        W23037   9.127   7.915   3.276
22557W        W23038   9.482   8.064   0.454
22558W        W23039  10.665  10.457   3.208
22559W        W23040   9.632   7.538   3.247
22560W        W23041  10.651   9.839   3.369
22561W        W23042  10.081   8.006   2.965
22562W        W23043   9.881   7.944   1.235
22563W        W23044  10.274   9.078   3.639
22564W        W23045   8.014  10.654   1.625
22565W        W23046   8.672   8.371   0.611
22566W        W23047   8.241   7.655   3.275
22567W        W23048  10.293   8.139   0.956
22568W        W23049  10.660   8.621   0.901
22569W        W23050   8.403  10.838   3.372
22570W        W23051   8.329   7.374   0.607
22571W        W23052  10.650   7.908   1.642
22572W        W23053  10.800  10.157   0.087
22573W        W23054   7.707   9.360   1.789
22574W        W23055   9.624   7.947   0.019
22575W        W23056  10.758  10.279   1.739
22576W        W23057  10.797   7.473   2.489
22577W        W23058   9.242   8.685   3.043
22578W        W23059   9.335  10.024   0.746
22579W        W23060   9.735   9.318   3.486
22580W        W23061   9.409   7.295   1.795
22581W        W23062   8.021   8.198   1.858
22582W        W23063   7.575   9.398   2.632
22583W        W23064   9.434  10.591   1.338
22584W        W23065  10.628   8.188   2.210
22585W        W23066   9.265  10.535   2.977
22586W        W23067  10.608   9.594   0.182
22587W        W23068   9.043   9.077   1.243
22588W        W23069  10.895   7.588   2.984
22589W        W23070   9.044   9.423   2.578
22590W        W23071   9.261   8.309   2.023
22591W        W23072  10.113   8.607   0.861
22592W        W23073  10.400   8.340   0.503
22593W        W23074  10.209  10.380   0.892
22594W        W23075  10.043   9.983   1.688
22595W        W23076   9.939   9.062   0.666
22596W        W23077   9.372   9.272   1.652
22597W        W23078  10.253   9.060   1.719
22598W        W23079   7.628   8.075   2.143
22599W        W23080  10.406   9.127   2.970
22600W        W23081  10.757  10.745   2.116
22601W        W23082   8.687  10.189   1.518
22602W        W23083   9.694  10.722   2.842
22603W        W23084   9.688   8.052   2.606
22604W        W23085   8.895  10.760   2.667
22605W        W23086  10.592   7.714   1.133
22606W        W23087  10.383   9.033   2.434
22607W        W23088   7.366   8.354   2.472
22608W        W23089  10.226   8.149   1.490
22609W        W23090  10.637   8.300   3.267
22610W        W23091   9.522   9.999   1.485
22611W        W23092   8.778  10.590   1.098
22612W        W23093   7.893   7.770   0.356
22613W        W23094   8.997   7.424   2.166
22614W        W23095   8.025  10.544   0.014
22615W        W23096   8.399   9.010   0.765
22616W        W23097   9.053   9.639   3.078
22617W        W23098   8.883   7.997   1.068
22618W        W23099  10.239   7.594   1.496
22619W        W23100   9.959  10.876   1.824
22620W        W23101   9.371  10.524   2.164
22621W        W23102   8.767   9.561   2.125
22622W        W23103  10.537  10.284   2.251
22623W        W23104   8.231   7.787   1.020
22624W        W23105   8.753  10.084   1.980
22625W        W23106   8.236   8.015   0.045
22626W        W23107   9.037   8.624   2.439
22627W        W23108   9.885   7.490   2.309
22628W        W23109   7.305   9.333   2.194
22629W        W23110   9.009   9.151   0.352
22630W        W23111   8.277   7.466   0.122
22631W        W23112   9.015   8.547   1.173
22632W        W23113   9.985   7.523   2.872
22633W        W23114   8.573   9.535   2.981
22634W        W23115   9.377   9.317   3.198
22635W        W23116   9.994   9.347   3.091
22636W        W23117   9.278   7.487   3.596
22637W        W23118   8.500   8.103   1.989
22638W        W23119   7.926   8.059   1.387
22639W        W23120   7.712  10.771   1.063
22640W        W23121   9.044  10.101   3.188
22641W        W23122   8.079   9.586   0.547
22642W        W23123   9.759   8.971   1.768
22643W        W23124  10.039   8.770   2.167
22644W        W23125   9.244   9.444   2.101
22645W        W23126   9.714   9.818   0.233
22646W        W23127   9.386   7.839   1.561
22647W        W23128  10.865   8.117   0.829
22648W        W23129   7.359  10.706   2.860
22649W        W23130   7.776   9.932   2.392
22650W        W23131   7.343  10.778   0.624
22651W        W23132   9.242   8.048   2.430
22652W        W23133   8.605  10.071   0.279
22653W        W23134  10.510  10.453   0.465
22654W        W23135   9.485   9.106   0.479
22655W        W23136   8.328   8.297   0.996
22656W        W23137   9.160   8.207   0.048
22657W        W23138   9.744   9.772   3.226
22658W        W23139  10.097   7.678   0.843
22659W        W23140   7.427   7.526   0.291
22660W        W23141   8.713   9.845   2.581
22661W        W23142   8.512   9.761   1.673
22662W        W23143   8.254   9.713   0.071
22663W        W23144   7.999   9.024   3.281
22664W        W23145   8.703   7.584   3.467
22665W        W23146   9.412   7.726   2.823
22666W        W23147   8.607   7.494   1.104
22667W        W23148   9.666   7.571   0.609
22668W        W23149   7.611   7.503   2.186
22669W        W23150   7.659   8.466   1.556
22670W        W23151  10.348   7.574   1.962
22671W        W23152   7.770   8.072   0.776
22672W        W23153  10.341   7.760   2.392
22673W        W23154  10.737   8.963   0.077
22674W        W23155   8.029   7.721   1.896
22675W        W23156   9.143   8.293   2.836
22676W        W23157   7.291   7.983   0.314
22677W        W23158   8.077   9.372   2.875
22678W        W23159   9.435   8.770   2.054
22679W        W23160   9.302  10.849   0.350
22680W        W23161   7.448   9.356   0.047
22681W        W23162   8.183   9.767   3.173
22682W        W23163   7.704   8.934   2.804
22683W        W23164   8.695   9.039   2.598
22684W        W23165  10.463   7.398   2.860
22685W        W23166  10.861   9.008   2.851
22686W        W23167  10.849   9.208   0.537
22687W        W23168   9.712   9.540   0.636
22688W        W23169  10.186  10.840   0.331
22689W        W23170   9.363   8.830   3.473
22690W        W23171   7.693   9.797   3.513
22691W        W23172  10.899   7.719   3.465
22692W        W23173  10.617   8.647   2.086
22693W        W23174   8.925  10.777   3.563
22694W        W23175   8.780   7.406   0.290
22695W        W23176  10.319  10.005   0.233
22696W        W23177   8.088   8.098   3.119
22697W        W23178   8.522  10.092   2.981
22698W        W23179  10.648   8.083   2.779
22699W        W23180   9.859  10.742   0.747
22700W        W23181  10.098   9.361   2.114
22701W        W23182   8.348   7.777   2.781
22702W        W23183   8.817   8.846   3.538
22703W        W23184   8.320  10.025   0.732
22704W        W23185  10.075   9.523   0.996
22705W        W23186   9.172  10.211   1.184
22706W        W23187  10.922   8.771   1.365
22707W        W23188   9.144   7.404   3.084
22708W        W23189   9.924  10.109   2.163
22709W        W23190  10.227  10.453   1.871
22710W        W23191   9.446  10.255   0.299
22711W        W23192   7.456  10.147   3.141
22712W        W23193   8.199   8.139   2.379
22713W        W23194   8.169   7.487   1.489
22714W        W23195   9.790   8.329   2.181
22715W        W23196   8.588   9.500   0.381
22716W        W23197  10.586   9.442   1.880
22717W        W23198   7.913  10.200   3.303
22718W        W23199  10.300  10.882   1.100
22719W        W23200   8.399   7.902   1.545
22720W        W23201   8.168   9.395   1.635
22721W        W23202   8.481  10.806   2.385
22722W        W23203  10.548  10.902   3.417
22723W        W23204   9.707   9.090   2.350
22724W        W23205   7.556   8.888   0.265
22725W        W23206  10.690  10.546   0.962
22726W        W23207  10.527   7.870   0.581
22727W        W23208   8.666   7.389   2.984
22728W        W23209  10.372  10.191   1.442
22729W        W23210  10.401   8.747   1.347
22730W        W23211   8.518   8.420   1.563
22731W        W23212   8.763   8.682   2.887
22732W        W23213   9.874   9.835   2.750
22733W        W23214   8.524   8.289   2.862
22734W        W23215   8.503  10.755   1.478
22735W        W23216   7.820  10.714   3.112
22736W        W23217   7.932  10.075   0.242
22737W        W23218  10.449   9.833   1.052
22738W        W23219   8.053   8.625   2.938
22739W        W23220  10.826   8.555   0.419
22740W        W23221   8.571   9.612   0.890
22741W        W23222   9.670   8.994   2.971
22742W        W23223   9.561   8.622   2.515
22743W        W23224   8.121   8.994   2.544
22744W        W23225  10.331  10.882   2.373
22745W        W23226  10.122   7.516   3.367
22746W        W23227   7.786   7.666   2.954
22747W        W23228   8.125   8.689   2.007
22748W        W23229   8.494   8.503   0.129
22749W        W23230   7.297  10.262   2.674
22750W        W23231   8.882   8.971   2.117
22751W        W23232   8.705   7.996   0.222
22752W        W23233   7.840   8.812   1.003
22753W        W23234   7.611  10.664   2.440
22754W        W23235  10.406   8.890   0.548
22755W        W23236  10.501   7.806   3.234
22756W        W23237   9.937  10.015   1.197
22757W        W23238   7.535   8.939   3.374
22758W        W23239  10.501   7.403   0.670
22759W        W23240  10.021   9.878   0.681
22760W        W23241   8.923   8.936   0.766
22761W        W23242  10.110   7.740   0.289
22762W        W23243  10.175   8.347   2.475
22763W        W23244   7.884   8.940   1.682
22764W        W23245   9.941   8.499   1.296
22765W        W23246   8.964   7.878   1.992
22766W        W23247  10.926   9.789   2.503
22767W        W23248  10.844   7.776   2.064
22768W        W23249   7.383  10.606   1.440
22769W        W23250   7.892   9.793   0.976
22770W        W23251   7.807   7.410   3.529
22771W        W23252   8.926  10.263   3.631
22772W        W23253  10.681   9.231   1.421
22773W        W23254  10.035   9.408   0.301
22774W        W23255   9.330  10.929   2.513
22775W        W23256  10.187   9.651   3.550
22776W        W23257   9.002   7.361   0.830
22777W        W23258   9.715   8.230   1.689
22778W        W23259   7.401   9.817   2.021
22779W        W23260   8.654   7.779   0.662
22780W        W23261   8.458   9.263   3.511
22781W        W23262   9.452   8.244   1.225
22782W        W23263   9.657   9.654   2.347
22783W        W23264   7.811  10.259   2.782
22784W        W23265   8.402  10.242   3.505
22785W        W23266   8.253   8.039   0.519
22786W        W23267   9.770   8.181   0.844
22787W        W23268   9.728  10.289   3.081
22788W        W23269   8.413   8.881   1.680
22789W        W23270   8.068  10.579   2.545
22790W        W23271  10.813  10.696   0.146
22791W        W23272   7.676   9.368   3.142
22792W        W23273   9.671   9.630   1.830
22793W        W23274   8.107   9.279   1.072
22794W        W23275   8.478  10.286   2.467
22795W        W23276   8.856   7.705   1.508
22796W        W23277   7.467   9.689   0.438
22797W        W23278   8.986   8.640   0.308
22798W        W23279   7.632   9.189   1.327
22799W        W23280   8.922   7.831   2.791
22800W        W23281  10.594   7.540   0.218
22801W        W23282  10.687   9.286   3.317
22802W        W23283   9.341  10.543   3.469
22803W        W23284  10.899   9.637   2.991
22804W        W23285  10.307  10.435   3.602
22805W        W23286   8.046  10.891   2.080
22806W        W23287  10.905   9.513   0.954
22807W        W23288   9.435   8.780   1.467
22808W        W23289   9.202   7.392   1.357
22809W        W23290   8.261  10.376   1.194
22810W        W23291   8.760   8.117   2.419
22811W        W23292   8.460   7.486   1.888
22812W        W23293   7.523  10.308   0.436
22813W        W23294   9.339   9.672   1.154
22814W        W23295   8.214  10.467   3.033
22815W        W23296   7.691   9.290   0.729
22816W        W23297   7.576   7.833   1.728
22817W        W23298   9.124   9.798   1.785
22818W        W23299   7.376   7.652   0.805
22819W        W23300  10.040   8.858   2.732
22820W        W23301   9.917   8.244   0.304
22821W        W23302  10.434   9.916   1.952
22822W        W23303   9.095  10.400   1.783
22823W        W23304   8.507  10.504   0.694
22824W        W23305   7.589  10.667   1.865
22825W        W23306   9.786   8.425   3.500
22826W        W23307   7.769   7.955   3.499
22827W        W23308   7.500   8.555   0.832
22828W        W23309   8.191   8.544   0.557
22829W        W23310   9.954   8.871   3.374
22830W        W23311   8.297   9.152   2.083
22831W        W23312   9.771   7.438   1.203
22832W        W23313   8.902  10.869   1.706
22833W        W23314  10.116  10.331   2.643
22834W        W23315   9.700  10.480   1.754
22835W        W23316   9.719   9.460   1.348
22836W        W23317   9.181   7.685   0.419
22837W        W23318  10.862   7.313   1.141
22838W        W23319   8.550   8.948   0.304
22839W        W23320  10.716   8.285   1.294
22840W        W23321   9.408   9.455   0.171
22841W        W23322  10.344   9.655   2.919
22842W        W23323   9.998  10.356   0.386
22843W        W23324   8.613   8.031   3.292
22844W        W23325   8.433   8.615   2.533
22845W        W23326  10.525  10.110   2.810
22846W        W23327   9.625   8.060   3.187
22847W        W23328   7.469   8.531   2.964
22848W        W23329   9.229   9.008   2.690
22849W        W23330   7.586   9.766   1.347
22850W        W23331  10.050   9.349   2.587
22851W        W23332   9.822  10.729   3.398
22852W        W23333   9.718   8.468   2.951
22853W        W23334   9.995  10.522   1.356
22854W        W23335   8.997  10.242   2.679
22855W        W23336   8.482  10.597   1.948
22856W        W23337  10.287   9.768   2.367
22857W        W23338   9.337   9.840   3.504
22858W        W23339   7.942   9.793   1.843
22859W        W23340  10.288   9.552   1.488
22860W        W23341   7.907  10.347   2.109
22861W        W23342   8.928   8.399   3.319
22862W        W23343   9.379  10.565   0.830
22863W        W23344   8.687   9.820   3.468
22864W        W23345   8.813  10.058   0.845
22865W        W23346   8.034   8.798   0.104
22866W        W23347   7.373  10.884   7.003
22867W        W23348   7.749   9.777   6.526
22868W        W23349  10.454   9.507   4.296
22869W        W23350  10.584  10.592   6.323
22870W        W23351   8.502  10.583   3.849
22871W        W23352   8.585   8.735   4.832
22872W        W23353   8.100   8.583   4.996
22873W        W23354   9.091   9.398   4.430
22874W        W23355   8.766  10.490   6.785
22875W        W23356   7.415   8.051   6.748
22876W        W23357   8.177   7.331   6.550
22877W        W23358   9.871   7.719   5.437
22878W        W23359   9.520   8.590   4.007
22879W        W23360  10.090   8.024   7.098
22880W        W23361   7.456   7.816   6.223
22881W        W23362   7.555  10.435   7.244
22882W        W23363   9.077   9.825   3.976
22883W        W23364   7.509   8.608   5.669
22884W        W23365   8.402   8.499   6.906
22885W        W23366  10.861   8.358   5.405
22886W        W23367  10.625   9.401   6.264
22887W        W23368   8.933   8.734   5.291
22888W        W23369   9.479  10.073   5.660
22889W        W23370   7.979   9.507   5.892
22890W        W23371   7.338   9.035   5.463
22891W        W23372   8.374   9.007   6.655
22892W        W23373  10.645   8.790   6.909
22893W        W23374   8.602   8.563   5.713
22894W        W23375   7.360   8.547   7.214
22895W        W23376  10.192  10.082   6.813
22896W        W23377   7.773   7.664   4.811
22897W        W23378   8.300   9.922   5.810
22898W        W23379  10.763   9.705   5.100
22899W        W23380  10.176   8.105   5.667
22900W        W23381  10.461   8.058   3.762
22901W        W23382  10.926   8.859   6.068
22902W        W23383  10.667  10.032   4.259
22903W        W23384   7.796  10.818   4.013
22904W        W23385   8.189  10.864   4.689
22905W        W23386   7.986   7.618   6.115
22906W        W23387  10.609   8.636   6.390
22907W        W23388  10.014   9.058   4.849
22908W        W23389   9.980   8.746   3.876
22909W        W23390   8.994   8.220   5.215
22910W        W23391   9.594  10.307   6.209
22911W        W23392  10.465   9.098   4.631
22912W        W23393   9.367   7.756   4.647
22913W        W23394   7.395   7.949   4.929
22914W        W23395  10.181   8.556   5.403
22915W        W23396   7.639  10.173   5.318
22916W        W23397   8.980  10.523   4.188
22917W        W23398  10.372   8.549   3.652
22918W        W23399   7.395  10.307   5.816
22919W        W23400   8.186   9.879   6.296
22920W        W23401   8.581   7.644   6.008
22921W        W23402  10.810   7.406   5.305
22922W        W23403   8.029   9.278   3.773
22923W        W23404   7.684   8.311   3.952
22924W        W23405   7.746  10.267   4.746
22925W        W23406  10.209  10.609   6.708
22926W        W23407   9.135   8.251   4.392
22927W        W23408  10.518  10.649   5.164
22928W        W23409  10.195   8.502   6.762
22929W        W23410  10.908  10.158   4.896
22930W        W23411   7.301   9.001   4.586
22931W        W23412   8.412   9.416   6.159
22932W        W23413   9.616   8.680   4.537
22933W        W23414   9.493   9.170   4.641
22934W        W23415   7.821   8.466   7.037
22935W        W23416   7.711   7.383   5.196
22936W        W23417   9.479   7.730   5.757
22937W        W23418   9.127   7.915   6.920
22938W        W23419   9.482   8.064   4.098
22939W        W23420  10.665  10.457   6.852
22940W        W23421   9.632   7.538   6.891
22941W        W23422  10.081   8.006   6.609
22942W        W23423   9.881   7.944   4.879
22943W        W23424  10.274   9.078   7.283
22944W        W23425   8.014  10.654   5.269
22945W        W23426   8.672   8.371   4.255
22946W        W23427   8.241   7.655   6.919
22947W        W23428  10.293   8.139   4.600
22948W        W23429  10.660   8.621   4.545
22949W        W23430   8.403  10.838   7.016
22950W        W23431   8.329   7.374   4.251
22951W        W23432  10.650   7.908   5.286
22952W        W23433  10.800  10.157   3.731
22953W        W23434   7.707   9.360   5.433
22954W        W23435   9.624   7.947   3.663
22955W        W23436  10.758  10.279   5.383
22956W        W23437  10.797   7.473   6.133
22957W        W23438   9.242   8.685   6.687
22958W        W23439   9.335  10.024   4.390
22959W        W23440   9.409   7.295   5.439
22960W        W23441   8.021   8.198   5.502
22961W        W23442   7.575   9.398   6.276
22962W        W23443   9.434  10.591   4.982
22963W        W23444  10.628   8.188   5.854
22964W        W23445   9.265  10.535   6.621
22965W        W23446  10.608   9.594   3.826
22966W        W23447  10.895   7.588   6.628
22967W        W23448   9.261   8.309   5.667
22968W        W23449  10.113   8.607   4.505
22969W        W23450  10.400   8.340   4.147
22970W        W23451  10.209  10.380   4.536
22971W        W23452  10.043   9.983   5.332
22972W        W23453   9.939   9.062   4.310
22973W        W23454  10.253   9.060   5.363
22974W        W23455   7.628   8.075   5.787
22975W        W23456  10.757  10.745   5.760
22976W        W23457   9.694  10.722   6.486
22977W        W23458   9.688   8.052   6.250
22978W        W23459   8.895  10.760   6.311
22979W        W23460  10.592   7.714   4.777
22980W        W23461   7.366   8.354   6.116
22981W        W23462  10.226   8.149   5.134
22982W        W23463  10.637   8.300   6.911
22983W        W23464   8.778  10.590   4.742
22984W        W23465   7.893   7.770   4.000
22985W        W23466   8.997   7.424   5.810
22986W        W23467   8.025  10.544   3.658
22987W        W23468   8.399   9.010   4.409
22988W        W23469  10.239   7.594   5.140
22989W        W23470   9.959  10.876   5.468
22990W        W23471   9.371  10.524   5.808
22991W        W23472  10.537  10.284   5.895
22992W        W23473   8.231   7.787   4.664
22993W        W23474   8.236   8.015   3.689
22994W        W23475   9.037   8.624   6.083
22995W        W23476   9.885   7.490   5.953
22996W        W23477   7.305   9.333   5.838
22997W        W23478   9.009   9.151   3.996
22998W        W23479   8.277   7.466   3.766
22999W        W23480   9.015   8.547   4.817
23000W        W23481   9.985   7.523   6.516
23001W        W23482   9.278   7.487   7.240
23002W        W23483   8.500   8.103   5.633
23003W        W23484   7.926   8.059   5.031
23004W        W23485   7.712  10.771   4.707
23005W        W23486   9.044  10.101   6.832
23006W        W23487   8.079   9.586   4.191
23007W        W23488  10.039   8.770   5.811
23008W        W23489   9.714   9.818   3.877
23009W        W23490   9.386   7.839   5.205
23010W        W23491  10.865   8.117   4.473
23011W        W23492   7.359  10.706   6.504
23012W        W23493   7.776   9.932   6.036
23013W        W23494   7.343  10.778   4.268
23014W        W23495   9.242   8.048   6.074
23015W        W23496   8.605  10.071   3.923
23016W        W23497  10.510  10.453   4.109
23017W        W23498   9.485   9.106   4.123
23018W        W23499   8.328   8.297   4.640
23019W        W23500   9.160   8.207   3.692
23020W        W23501  10.097   7.678   4.487
23021W        W23502   7.427   7.526   3.935
23022W        W23503   8.512   9.761   5.317
23023W        W23504   8.254   9.713   3.715
23024W        W23505   7.495   9.954   4.483
23025W        W23506   7.999   9.024   6.925
23026W        W23507   8.703   7.584   7.111
23027W        W23508   9.412   7.726   6.467
23028W        W23509   9.666   7.571   4.253
23029W        W23510   7.611   7.503   5.830
23030W        W23511   7.659   8.466   5.200
23031W        W23512  10.348   7.574   5.606
23032W        W23513   7.770   8.072   4.420
23033W        W23514  10.341   7.760   6.036
23034W        W23515  10.737   8.963   3.721
23035W        W23516   8.029   7.721   5.540
23036W        W23517   9.143   8.293   6.480
23037W        W23518   7.291   7.983   3.958
23038W        W23519   8.077   9.372   6.519
23039W        W23520   9.302  10.849   3.994
23040W        W23521   7.448   9.356   3.691
23041W        W23522   8.183   9.767   6.817
23042W        W23523   7.704   8.934   6.448
23043W        W23524   8.695   9.039   6.242
23044W        W23525  10.463   7.398   6.504
23045W        W23526  10.861   9.008   6.495
23046W        W23527  10.849   9.208   4.181
23047W        W23528   9.712   9.540   4.280
23048W        W23529  10.186  10.840   3.975
23049W        W23530   7.693   9.797   7.157
23050W        W23531  10.899   7.719   7.109
23051W        W23532  10.617   8.647   5.730
23052W        W23533   8.925  10.777   7.207
23053W        W23534   8.780   7.406   3.934
23054W        W23535  10.319  10.005   3.877
23055W        W23536   8.088   8.098   6.763
23056W        W23537   8.522  10.092   6.625
23057W        W23538  10.648   8.083   6.423
23058W        W23539   9.859  10.742   4.391
23059W        W23540  10.098   9.361   5.758
23060W        W23541   8.348   7.777   6.425
23061W        W23542   8.320  10.025   4.376
23062W        W23543  10.075   9.523   4.640
23063W        W23544   7.843   8.149   6.364
23064W        W23545  10.922   8.771   5.009
23065W        W23546   9.144   7.404   6.728
23066W        W23547   9.924  10.109   5.807
23067W        W23548  10.227  10.453   5.515
23068W        W23549   9.446  10.255   3.943
23069W        W23550   7.456  10.147   6.785
23070W        W23551   8.199   8.139   6.023
23071W        W23552   8.169   7.487   5.133
23072W        W23553   9.790   8.329   5.825
23073W        W23554   8.588   9.500   4.025
23074W        W23555  10.586   9.442   5.524
23075W        W23556   7.913  10.200   6.947
23076W        W23557  10.300  10.882   4.744
23077W        W23558   8.399   7.902   5.189
23078W        W23559   8.168   9.395   5.279
23079W        W23560   8.481  10.806   6.029
23080W        W23561  10.548  10.902   7.061
23081W        W23562   7.556   8.888   3.909
23082W        W23563  10.690  10.546   4.606
23083W        W23564  10.527   7.870   4.225
23084W        W23565   8.666   7.389   6.628
23085W        W23566  10.372  10.191   5.086
23086W        W23567  10.401   8.747   4.991
23087W        W23568   8.518   8.420   5.207
23088W        W23569   8.763   8.682   6.531
23089W        W23570   8.524   8.289   6.506
23090W        W23571   8.503  10.755   5.122
23091W        W23572   7.820  10.714   6.756
23092W        W23573   7.932  10.075   3.886
23093W        W23574  10.449   9.833   4.696
23094W        W23575   8.053   8.625   6.582
23095W        W23576  10.826   8.555   4.063
23096W        W23577   8.571   9.612   4.534
23097W        W23578   9.561   8.622   6.159
23098W        W23579   8.121   8.994   6.188
23099W        W23580  10.331  10.882   6.017
23100W        W23581  10.122   7.516   7.011
23101W        W23582   7.786   7.666   6.598
23102W        W23583   8.125   8.689   5.651
23103W        W23584   8.494   8.503   3.773
23104W        W23585   7.297  10.262   6.318
23105W        W23586   8.882   8.971   5.761
23106W        W23587   8.705   7.996   3.866
23107W        W23588   7.840   8.812   4.647
23108W        W23589   7.611  10.664   6.084
23109W        W23590  10.406   8.890   4.192
23110W        W23591  10.501   7.806   6.878
23111W        W23592   9.937  10.015   4.841
23112W        W23593   7.535   8.939   7.018
23113W        W23594  10.501   7.403   4.314
23114W        W23595  10.021   9.878   4.325
23115W        W23596   8.923   8.936   4.410
23116W        W23597  10.110   7.740   3.933
23117W        W23598  10.175   8.347   6.119
23118W        W23599   7.884   8.940   5.326
23119W        W23600   8.178   9.879   4.975
23120W        W23601   9.941   8.499   4.940
23121W        W23602   8.964   7.878   5.636
23122W        W23603  10.926   9.789   6.147
23123W        W23604  10.844   7.776   5.708
23124W        W23605   7.383  10.606   5.084
23125W        W23606   7.892   9.793   4.620
23126W        W23607   7.807   7.410   7.173
23127W        W23608   8.926  10.263   7.275
23128W        W23609  10.681   9.231   5.065
23129W        W23610  10.035   9.408   3.945
23130W        W23611   9.715   8.230   5.333
23131W        W23612   7.401   9.817   5.665
23132W        W23613   8.654   7.779   4.306
23133W        W23614   9.452   8.244   4.869
23134W        W23615   7.811  10.259   6.426
23135W        W23616   8.402  10.242   7.149
23136W        W23617   8.253   8.039   4.163
23137W        W23618   9.770   8.181   4.488
23138W        W23619   9.728  10.289   6.725
23139W        W23620   8.413   8.881   5.324
23140W        W23621   8.068  10.579   6.189
23141W        W23622  10.813  10.696   3.790
23142W        W23623   7.676   9.368   6.786
23143W        W23624   8.107   9.279   4.716
23144W        W23625   8.478  10.286   6.111
23145W        W23626   7.467   9.689   4.082
23146W        W23627   8.986   8.640   3.952
23147W        W23628   7.632   9.189   4.971
23148W        W23629   8.922   7.831   6.435
23149W        W23630  10.594   7.540   3.862
23150W        W23631   9.341  10.543   7.113
23151W        W23632  10.899   9.637   6.635
23152W        W23633   8.046  10.891   5.724
23153W        W23634  10.905   9.513   4.598
23154W        W23635   9.435   8.780   5.111
23155W        W23636   9.202   7.392   5.001
23156W        W23637   8.261  10.376   4.838
23157W        W23638   8.760   8.117   6.063
23158W        W23639   8.460   7.486   5.532
23159W        W23640   7.523  10.308   4.080
23160W        W23641   8.214  10.467   6.677
23161W        W23642   7.691   9.290   4.373
23162W        W23643   7.576   7.833   5.372
23163W        W23644   7.376   7.652   4.449
23164W        W23645   9.917   8.244   3.948
23165W        W23646  10.434   9.916   5.596
23166W        W23647   8.507  10.504   4.338
23167W        W23648   9.789   7.407   3.768
23168W        W23649   7.589  10.667   5.509
23169W        W23650   9.786   8.425   7.144
23170W        W23651   7.769   7.955   7.143
23171W        W23652   7.500   8.555   4.476
23172W        W23653   8.191   8.544   4.201
23173W        W23654   9.954   8.871   7.018
23174W        W23655   8.297   9.152   5.727
23175W        W23656   9.771   7.438   4.847
23176W        W23657   8.902  10.869   5.350
23177W        W23658  10.116  10.331   6.287
23178W        W23659   9.700  10.480   5.398
23179W        W23660   9.719   9.460   4.992
23180W        W23661   9.181   7.685   4.063
23181W        W23662  10.862   7.313   4.785
23182W        W23663   8.550   8.948   3.948
23183W        W23664  10.716   8.285   4.938
23184W        W23665   9.408   9.455   3.815
23185W        W23666   9.998  10.356   4.030
23186W        W23667   8.433   8.615   6.177
23187W        W23668  10.525  10.110   6.454
23188W        W23669   9.625   8.060   6.831
23189W        W23670   7.469   8.531   6.608
23190W        W23671   9.229   9.008   6.334
23191W        W23672   7.586   9.766   4.991
23192W        W23673   7.733   9.063   5.881
23193W        W23674   9.822  10.729   7.042
23194W        W23675   9.718   8.468   6.595
23195W        W23676   9.995  10.522   5.000
23196W        W23677  10.287   9.768   6.011
23197W        W23678   7.942   9.793   5.487
23198W        W23679  10.288   9.552   5.132
23199W        W23680   9.929  10.618   5.883
23200W        W23681   7.907  10.347   5.753
23201W        W23682   8.928   8.399   6.963
23202W        W23683   9.379  10.565   4.474
23203W        W23684   8.687   9.820   7.112
23204W        W23685   8.813  10.058   4.489
23205W        W23686   8.034   8.798   3.748
23206W        W23687   7.373  10.884  10.648
23207W        W23688  10.584  10.592   9.968
23208W        W23689   8.502  10.583   7.494
23209W        W23690   8.766  10.490  10.430
23210W        W23691   7.415   8.051  10.393
23211W        W23692  10.090   8.024  10.743
23212W        W23693   7.456   7.816   9.868
23213W        W23694   9.077   9.825   7.621
23214W        W23695   7.509   8.608   9.314
23215W        W23696   8.402   8.499  10.551
23216W        W23697  10.861   8.358   9.050
23217W        W23698   7.338   9.035   9.108
23218W        W23699  10.645   8.790  10.554
23219W        W23700   8.602   8.563   9.358
23220W        W23701   8.970   9.440  10.859
23221W        W23702   8.951   9.156  10.337
23222W        W23703   7.360   8.547  10.859
23223W        W23704   7.773   7.664   8.456
23224W        W23705  10.176   8.105   9.312
23225W        W23706  10.461   8.058   7.407
23226W        W23707   8.893  10.566   9.466
23227W        W23708   7.796  10.818   7.658
23228W        W23709   8.189  10.864   8.334
23229W        W23710  10.609   8.636  10.035
23230W        W23711  10.014   9.058   8.494
23231W        W23712   8.024  10.450   7.975
23232W        W23713   7.395   7.949   8.574
23233W        W23714  10.181   8.556   9.048
23234W        W23715   7.639  10.173   8.963
23235W        W23716   8.980  10.523   7.833
23236W        W23717  10.372   8.549   7.297
23237W        W23718   7.395  10.307   9.461
23238W        W23719  10.810   7.406   8.950
23239W        W23720   8.029   9.278   7.418
23240W        W23721   7.684   8.311   7.597
23241W        W23722   7.746  10.267   8.391
23242W        W23723  10.195   8.502  10.407
23243W        W23724   7.301   9.001   8.231
23244W        W23725   9.616   8.680   8.182
23245W        W23726   7.821   8.466  10.682
23246W        W23727   7.711   7.383   8.841
23247W        W23728   9.127   7.915  10.565
23248W        W23729   9.482   8.064   7.743
23249W        W23730  10.665  10.457  10.497
23250W        W23731   9.632   7.538  10.536
23251W        W23732  10.081   8.006  10.254
23252W        W23733   8.014  10.654   8.914
23253W        W23734   8.241   7.655  10.564
23254W        W23735  10.293   8.139   8.245
23255W        W23736  10.660   8.621   8.190
23256W        W23737   8.403  10.838  10.661
23257W        W23738  10.650   7.908   8.931
23258W        W23739  10.800  10.157   7.376
23259W        W23740   9.624   7.947   7.308
23260W        W23741  10.797   7.473   9.778
23261W        W23742   8.021   8.198   9.147
23262W        W23743   9.434  10.591   8.627
23263W        W23744  10.628   8.188   9.499
23264W        W23745   9.265  10.535  10.266
23265W        W23746  10.608   9.594   7.471
23266W        W23747  10.895   7.588  10.273
23267W        W23748  10.113   8.607   8.150
23268W        W23749  10.400   8.340   7.792
23269W        W23750   7.628   8.075   9.432
23270W        W23751   8.687  10.189   8.807
23271W        W23752   9.694  10.722  10.131
23272W        W23753   8.895  10.760   9.956
23273W        W23754  10.592   7.714   8.422
23274W        W23755  10.226   8.149   8.779
23275W        W23756   8.778  10.590   8.387
23276W        W23757   7.893   7.770   7.645
23277W        W23758   8.025  10.544   7.303
23278W        W23759   9.053   9.639  10.367
23279W        W23760  10.239   7.594   8.785
23280W        W23761   9.959  10.876   9.113
23281W        W23762   9.371  10.524   9.453
23282W        W23763   8.753  10.084   9.269
23283W        W23764   8.236   8.015   7.334
23284W        W23765   9.885   7.490   9.598
23285W        W23766   9.009   9.151   7.641
23286W        W23767   8.277   7.466   7.411
23287W        W23768   9.985   7.523  10.161
23288W        W23769   8.573   9.535  10.270
23289W        W23770   9.278   7.487  10.885
23290W        W23771   7.712  10.771   8.352
23291W        W23772   9.044  10.101  10.477
23292W        W23773   8.079   9.586   7.836
23293W        W23774   9.759   8.971   9.057
23294W        W23775  10.039   8.770   9.456
23295W        W23776  10.865   8.117   8.118
23296W        W23777   7.359  10.706  10.149
23297W        W23778   7.343  10.778   7.913
23298W        W23779   8.605  10.071   7.568
23299W        W23780   9.160   8.207   7.337
23300W        W23781  10.097   7.678   8.132
23301W        W23782   7.427   7.526   7.580
23302W        W23783   8.713   9.845   9.870
23303W        W23784   8.512   9.761   8.962
23304W        W23785   8.254   9.713   7.360
23305W        W23786   7.495   9.954   8.128
23306W        W23787   8.703   7.584  10.756
23307W        W23788   9.666   7.571   7.898
23308W        W23789   7.611   7.503   9.475
23309W        W23790   7.659   8.466   8.845
23310W        W23791  10.348   7.574   9.251
23311W        W23792  10.341   7.760   9.681
23312W        W23793  10.737   8.963   7.366
23313W        W23794   9.143   8.293  10.125
23314W        W23795   7.291   7.983   7.603
23315W        W23796   9.302  10.849   7.639
23316W        W23797   7.448   9.356   7.336
23317W        W23798  10.463   7.398  10.149
23318W        W23799  10.849   9.208   7.826
23319W        W23800  10.186  10.840   7.620
23320W        W23801  10.899   7.719  10.754
23321W        W23802  10.617   8.647   9.375
23322W        W23803   8.925  10.777  10.852
23323W        W23804   8.780   7.406   7.579
23324W        W23805   8.088   8.098  10.408
23325W        W23806   8.522  10.092  10.270
23326W        W23807  10.648   8.083  10.068
23327W        W23808   9.859  10.742   8.036
23328W        W23809   8.817   8.846  10.827
23329W        W23810   8.320  10.025   8.021
23330W        W23811  10.922   8.771   8.654
23331W        W23812   7.456  10.147  10.430
23332W        W23813   8.588   9.500   7.670
23333W        W23814   8.481  10.806   9.674
23334W        W23815  10.548  10.902  10.706
23335W        W23816   7.556   8.888   7.554
23336W        W23817  10.527   7.870   7.870
23337W        W23818  10.401   8.747   8.636
23338W        W23819   8.503  10.755   8.767
23339W        W23820   7.820  10.714  10.401
23340W        W23821   7.932  10.075   7.531
23341W        W23822  10.826   8.555   7.708
23342W        W23823  10.122   7.516  10.656
23343W        W23824   7.786   7.666  10.243
23344W        W23825   8.494   8.503   7.418
23345W        W23826   7.297  10.262   9.963
23346W        W23827   8.705   7.996   7.511
23347W        W23828   7.611  10.664   9.729
23348W        W23829  10.501   7.806  10.523
23349W        W23830   9.937  10.015   8.486
23350W        W23831  10.501   7.403   7.959
23351W        W23832  10.021   9.878   7.970
23352W        W23833  10.110   7.740   7.578
23353W        W23834  10.175   8.347   9.764
23354W        W23835   8.178   9.879   8.620
23355W        W23836   9.941   8.499   8.585
23356W        W23837  10.926   9.789   9.792
23357W        W23838  10.844   7.776   9.353
23358W        W23839   7.383  10.606   8.729
23359W        W23840   7.892   9.793   8.265
23360W        W23841   7.807   7.410  10.818
23361W        W23842   8.926  10.263  10.920
23362W        W23843  10.681   9.231   8.710
23363W        W23844  10.035   9.408   7.590
23364W        W23845   9.330  10.929   9.802
23365W        W23846   7.401   9.817   9.310
23366W        W23847   8.458   9.263  10.800
23367W        W23848   9.657   9.654   9.636
23368W        W23849   8.402  10.242  10.794
23369W        W23850   9.770   8.181   8.133
23370W        W23851   8.068  10.579   9.834
23371W        W23852  10.813  10.696   7.435
23372W        W23853   7.467   9.689   7.727
23373W        W23854  10.594   7.540   7.507
23374W        W23855   9.341  10.543  10.758
23375W        W23856   8.046  10.891   9.369
23376W        W23857  10.905   9.513   8.243
23377W        W23858   9.435   8.780   8.756
23378W        W23859   8.261  10.376   8.483
23379W        W23860   7.523  10.308   7.725
23380W        W23861   8.214  10.467  10.322
23381W        W23862   7.691   9.290   8.018
23382W        W23863   7.576   7.833   9.017
23383W        W23864   7.376   7.652   8.094
23384W        W23865  10.040   8.858  10.021
23385W        W23866   9.917   8.244   7.593
23386W        W23867   9.095  10.400   9.072
23387W        W23868   8.507  10.504   7.983
23388W        W23869   9.789   7.407   7.413
23389W        W23870   7.589  10.667   9.154
23390W        W23871   7.769   7.955  10.788
23391W        W23872   7.500   8.555   8.121
23392W        W23873   9.771   7.438   8.492
23393W        W23874   8.902  10.869   8.995
23394W        W23875   9.700  10.480   9.043
23395W        W23876   9.181   7.685   7.708
23396W        W23877  10.862   7.313   8.430
23397W        W23878   8.550   8.948   7.593
23398W        W23879  10.716   8.285   8.583
23399W        W23880   8.613   8.031  10.581
23400W        W23881   9.625   8.060  10.476
23401W        W23882   7.586   9.766   8.636
23402W        W23883   7.733   9.063   9.526
23403W        W23884   9.718   8.468  10.240
23404W        W23885   8.997  10.242   9.968
23405W        W23886   8.482  10.597   9.237
23406W        W23887   9.337   9.840  10.793
23407W        W23888   8.928   8.399  10.608
23408W        W23889   8.687   9.820  10.757
23409W        W23890   8.034   8.798   7.393
23410W        W23891   7.373  10.884  14.292
23411W        W23892   7.749   9.777  13.815
23412W        W23893  10.584  10.592  13.612
23413W        W23894   8.502  10.583  11.138
23414W        W23895   8.585   8.735  12.121
23415W        W23896   8.100   8.583  12.285
23416W        W23897   9.091   9.398  11.719
23417W        W23898   8.766  10.490  14.074
23418W        W23899   7.415   8.051  14.037
23419W        W23900   8.177   7.331  13.839
23420W        W23901   9.871   7.719  12.726
23421W        W23902  10.090   8.024  14.387
23422W        W23903   7.456   7.816  13.512
23423W        W23904   7.555  10.435  14.533
23424W        W23905   9.077   9.825  11.265
23425W        W23906   7.509   8.608  12.958
23426W        W23907   8.402   8.499  14.195
23427W        W23908  10.861   8.358  12.694
23428W        W23909  10.625   9.401  13.553
23429W        W23910   8.933   8.734  12.580
23430W        W23911   9.479  10.073  12.949
23431W        W23912   7.979   9.507  13.181
23432W        W23913   7.338   9.035  12.752
23433W        W23914   8.374   9.007  13.944
23434W        W23915  10.645   8.790  14.198
23435W        W23916   8.261  10.234  12.643
23436W        W23917   9.382   9.923  13.777
23437W        W23918   8.602   8.563  13.002
23438W        W23919   8.894   9.347  12.645
23439W        W23920   9.891  10.120  14.493
23440W        W23921   8.970   9.440  14.503
23441W        W23922   8.951   9.156  13.981
23442W        W23923   7.360   8.547  14.503
23443W        W23924  10.192  10.082  14.102
23444W        W23925   7.773   7.664  12.100
23445W        W23926   8.300   9.922  13.099
23446W        W23927  10.763   9.705  12.389
23447W        W23928  10.176   8.105  12.956
23448W        W23929  10.461   8.058  11.051
23449W        W23930  10.926   8.859  13.357
23450W        W23931   8.893  10.566  13.110
23451W        W23932   7.796  10.818  11.302
23452W        W23933   8.189  10.864  11.978
23453W        W23934   7.986   7.618  13.404
23454W        W23935  10.609   8.636  13.679
23455W        W23936  10.014   9.058  12.138
23456W        W23937   9.188   9.890  13.305
23457W        W23938   8.994   8.220  12.504
23458W        W23939   9.594  10.307  13.498
23459W        W23940  10.465   9.098  11.920
23460W        W23941   9.367   7.756  11.936
23461W        W23942   8.024  10.450  11.619
23462W        W23943   7.395   7.949  12.218
23463W        W23944  10.181   8.556  12.692
23464W        W23945   7.639  10.173  12.607
23465W        W23946   8.980  10.523  11.477
23466W        W23947  10.372   8.549  10.941
23467W        W23948   7.395  10.307  13.105
23468W        W23949   8.186   9.879  13.585
23469W        W23950   8.559   9.239  12.204
23470W        W23951   8.581   7.644  13.297
23471W        W23952  10.810   7.406  12.594
23472W        W23953   8.029   9.278  11.062
23473W        W23954   7.684   8.311  11.241
23474W        W23955   8.877   9.750  12.283
23475W        W23956  10.209  10.609  13.997
23476W        W23957   9.135   8.251  11.681
23477W        W23958  10.518  10.649  12.453
23478W        W23959  10.195   8.502  14.051
23479W        W23960  10.908  10.158  12.185
23480W        W23961   9.535   9.450  13.669
23481W        W23962   7.301   9.001  11.875
23482W        W23963   8.412   9.416  13.448
23483W        W23964   9.493   9.170  11.930
23484W        W23965   7.836   8.590  13.404
23485W        W23966   7.821   8.466  14.326
23486W        W23967   7.711   7.383  12.485
23487W        W23968   9.479   7.730  13.046
23488W        W23969   9.127   7.915  14.209
23489W        W23970   9.482   8.064  11.387
23490W        W23971  10.665  10.457  14.141
23491W        W23972   9.632   7.538  14.180
23492W        W23973  10.651   9.839  14.302
23493W        W23974  10.081   8.006  13.898
23494W        W23975   9.881   7.944  12.168
23495W        W23976  10.274   9.078  14.572
23496W        W23977   8.014  10.654  12.558
23497W        W23978   8.241   7.655  14.208
23498W        W23979  10.293   8.139  11.889
23499W        W23980  10.660   8.621  11.834
23500W        W23981   8.403  10.838  14.305
23501W        W23982   8.329   7.374  11.540
23502W        W23983  10.650   7.908  12.575
23503W        W23984  10.800  10.157  11.020
23504W        W23985   7.707   9.360  12.722
23505W        W23986   9.624   7.947  10.952
23506W        W23987  10.758  10.279  12.672
23507W        W23988  10.797   7.473  13.422
23508W        W23989   9.242   8.685  13.976
23509W        W23990   9.335  10.024  11.679
23510W        W23991   9.735   9.318  14.419
23511W        W23992   9.409   7.295  12.728
23512W        W23993   8.021   8.198  12.791
23513W        W23994   7.575   9.398  13.565
23514W        W23995   9.434  10.591  12.271
23515W        W23996  10.628   8.188  13.143
23516W        W23997   9.265  10.535  13.910
23517W        W23998   9.043   9.077  12.176
23518W        W23999  10.895   7.588  13.917
23519W        W24000   9.044   9.423  13.511
23520W        W24001   9.261   8.309  12.956
23521W        W24002  10.400   8.340  11.436
23522W        W24003  10.043   9.983  12.621
23523W        W24004   9.372   9.272  12.585
23524W        W24005  10.253   9.060  12.652
23525W        W24006   7.628   8.075  13.076
23526W        W24007  10.406   9.127  13.903
23527W        W24008  10.757  10.745  13.049
23528W        W24009   8.687  10.189  12.451
23529W        W24010   9.694  10.722  13.775
23530W        W24011   9.688   8.052  13.539
23531W        W24012   8.895  10.760  13.600
23532W        W24013  10.592   7.714  12.066
23533W        W24014  10.383   9.033  13.367
23534W        W24015   7.366   8.354  13.405
23535W        W24016  10.226   8.149  12.423
23536W        W24017  10.637   8.300  14.200
23537W        W24018   9.522   9.999  12.418
23538W        W24019   8.778  10.590  12.031
23539W        W24020   7.893   7.770  11.289
23540W        W24021   8.997   7.424  13.099
23541W        W24022   8.025  10.544  10.947
23542W        W24023   8.399   9.010  11.698
23543W        W24024   9.053   9.639  14.011
23544W        W24025   8.883   7.997  12.001
23545W        W24026  10.239   7.594  12.429
23546W        W24027   9.959  10.876  12.757
23547W        W24028   9.371  10.524  13.097
23548W        W24029   8.767   9.561  13.058
23549W        W24030  10.537  10.284  13.184
23550W        W24031   8.231   7.787  11.953
23551W        W24032   8.753  10.084  12.913
23552W        W24033   8.236   8.015  10.978
23553W        W24034   9.037   8.624  13.372
23554W        W24035   9.885   7.490  13.242
23555W        W24036   7.305   9.333  13.127
23556W        W24037   9.009   9.151  11.285
23557W        W24038   8.277   7.466  11.055
23558W        W24039   9.015   8.547  12.106
23559W        W24040   9.985   7.523  13.805
23560W        W24041   8.573   9.535  13.914
23561W        W24042   9.994   9.347  14.024
23562W        W24043   9.278   7.487  14.529
23563W        W24044   8.500   8.103  12.922
23564W        W24045   7.926   8.059  12.320
23565W        W24046   7.712  10.771  11.996
23566W        W24047   9.044  10.101  14.121
23567W        W24048   8.079   9.586  11.480
23568W        W24049   9.759   8.971  12.701
23569W        W24050  10.039   8.770  13.100
23570W        W24051   9.244   9.444  13.034
23571W        W24052   9.386   7.839  12.494
23572W        W24053  10.865   8.117  11.762
23573W        W24054   7.359  10.706  13.793
23574W        W24055   7.776   9.932  13.325
23575W        W24056   7.343  10.778  11.557
23576W        W24057   9.242   8.048  13.363
23577W        W24058   8.605  10.071  11.212
23578W        W24059   8.328   8.297  11.929
23579W        W24060   9.160   8.207  10.981
23580W        W24061   9.744   9.772  14.159
23581W        W24062  10.097   7.678  11.776
23582W        W24063   7.427   7.526  11.224
23583W        W24064   8.713   9.845  13.514
23584W        W24065   8.512   9.761  12.606
23585W        W24066   8.254   9.713  11.004
23586W        W24067   7.495   9.954  11.772
23587W        W24068   7.999   9.024  14.214
23588W        W24069   8.703   7.584  14.400
23589W        W24070   9.412   7.726  13.756
23590W        W24071   8.607   7.494  12.037
23591W        W24072   9.666   7.571  11.542
23592W        W24073   7.611   7.503  13.119
23593W        W24074   7.659   8.466  12.489
23594W        W24075   7.770   8.072  11.709
23595W        W24076  10.341   7.760  13.325
23596W        W24077  10.737   8.963  11.010
23597W        W24078   8.029   7.721  12.829
23598W        W24079   9.143   8.293  13.769
23599W        W24080   7.291   7.983  11.247
23600W        W24081   8.077   9.372  13.808
23601W        W24082   9.435   8.770  12.987
23602W        W24083   9.302  10.849  11.283
23603W        W24084   8.183   9.767  14.106
23604W        W24085   7.704   8.934  13.737
23605W        W24086   8.695   9.039  13.531
23606W        W24087  10.463   7.398  13.793
23607W        W24088  10.861   9.008  13.784
23608W        W24089  10.849   9.208  11.470
23609W        W24090   9.712   9.540  11.569
23610W        W24091   9.363   8.830  14.406
23611W        W24092   7.693   9.797  14.446
23612W        W24093  10.899   7.719  14.398
23613W        W24094  10.617   8.647  13.019
23614W        W24095   8.925  10.777  14.496
23615W        W24096   8.780   7.406  11.223
23616W        W24097   8.088   8.098  14.052
23617W        W24098   8.522  10.092  13.914
23618W        W24099  10.648   8.083  13.712
23619W        W24100   9.859  10.742  11.680
23620W        W24101  10.098   9.361  13.047
23621W        W24102   8.348   7.777  13.714
23622W        W24103   8.817   8.846  14.471
23623W        W24104   8.320  10.025  11.665
23624W        W24105  10.075   9.523  11.929
23625W        W24106   7.843   8.149  13.653
23626W        W24107   9.172  10.211  12.117
23627W        W24108  10.922   8.771  12.298
23628W        W24109   9.144   7.404  14.017
23629W        W24110   9.924  10.109  13.096
23630W        W24111  10.227  10.453  12.804
23631W        W24112   9.446  10.255  11.232
23632W        W24113   7.456  10.147  14.074
23633W        W24114   8.199   8.139  13.312
23634W        W24115   8.169   7.487  12.422
23635W        W24116   9.790   8.329  13.114
23636W        W24117   8.588   9.500  11.314
23637W        W24118  10.586   9.442  12.813
23638W        W24119   7.913  10.200  14.236
23639W        W24120  10.300  10.882  12.033
23640W        W24121   8.399   7.902  12.478
23641W        W24122   8.168   9.395  12.568
23642W        W24123   8.481  10.806  13.318
23643W        W24124  10.548  10.902  14.350
23644W        W24125   9.707   9.090  13.283
23645W        W24126   7.556   8.888  11.198
23646W        W24127  10.690  10.546  11.895
23647W        W24128  10.527   7.870  11.514
23648W        W24129   8.666   7.389  13.917
23649W        W24130  10.372  10.191  12.375
23650W        W24131  10.401   8.747  12.280
23651W        W24132   8.518   8.420  12.496
23652W        W24133   8.763   8.682  13.820
23653W        W24134   9.874   9.835  13.683
23654W        W24135   8.524   8.289  13.795
23655W        W24136   8.503  10.755  12.411
23656W        W24137   7.820  10.714  14.045
23657W        W24138   7.932  10.075  11.175
23658W        W24139  10.449   9.833  11.985
23659W        W24140   8.053   8.625  13.871
23660W        W24141  10.826   8.555  11.352
23661W        W24142   8.571   9.612  11.823
23662W        W24143   9.670   8.994  13.904
23663W        W24144   9.561   8.622  13.448
23664W        W24145   8.121   8.994  13.477
23665W        W24146  10.331  10.882  13.306
23666W        W24147  10.122   7.516  14.300
23667W        W24148   7.786   7.666  13.887
23668W        W24149   8.125   8.689  12.940
23669W        W24150   8.494   8.503  11.062
23670W        W24151   7.297  10.262  13.607
23671W        W24152   8.882   8.971  13.050
23672W        W24153   8.705   7.996  11.155
23673W        W24154   7.840   8.812  11.936
23674W        W24155   7.611  10.664  13.373
23675W        W24156  10.406   8.890  11.481
23676W        W24157  10.501   7.806  14.167
23677W        W24158   9.937  10.015  12.130
23678W        W24159   7.535   8.939  14.307
23679W        W24160  10.501   7.403  11.603
23680W        W24161   8.923   8.936  11.699
23681W        W24162  10.110   7.740  11.222
23682W        W24163   7.884   8.940  12.615
23683W        W24164   8.178   9.879  12.264
23684W        W24165   9.941   8.499  12.229
23685W        W24166   8.964   7.878  12.925
23686W        W24167  10.926   9.789  13.436
23687W        W24168  10.844   7.776  12.997
23688W        W24169   7.383  10.606  12.373
23689W        W24170   7.892   9.793  11.909
23690W        W24171   7.807   7.410  14.462
23691W        W24172   8.926  10.263  14.564
23692W        W24173  10.681   9.231  12.354
23693W        W24174   9.330  10.929  13.446
23694W        W24175  10.187   9.651  14.483
23695W        W24176   9.002   7.361  11.763
23696W        W24177   9.715   8.230  12.622
23697W        W24178   7.401   9.817  12.954
23698W        W24179   8.654   7.779  11.595
23699W        W24180   8.458   9.263  14.444
23700W        W24181   9.452   8.244  12.158
23701W        W24182   9.657   9.654  13.280
23702W        W24183   7.811  10.259  13.715
23703W        W24184   8.402  10.242  14.438
23704W        W24185   8.253   8.039  11.452
23705W        W24186   9.770   8.181  11.777
23706W        W24187   9.728  10.289  14.014
23707W        W24188   8.413   8.881  12.613
23708W        W24189   8.068  10.579  13.478
23709W        W24190  10.813  10.696  11.079
23710W        W24191   7.676   9.368  14.075
23711W        W24192   9.671   9.630  12.763
23712W        W24193   8.107   9.279  12.005
23713W        W24194   8.478  10.286  13.400
23714W        W24195   8.856   7.705  12.441
23715W        W24196   7.467   9.689  11.371
23716W        W24197   8.986   8.640  11.241
23717W        W24198   7.632   9.189  12.260
23718W        W24199   8.922   7.831  13.724
23719W        W24200  10.594   7.540  11.151
23720W        W24201  10.687   9.286  14.250
23721W        W24202   9.341  10.543  14.402
23722W        W24203  10.899   9.637  13.924
23723W        W24204  10.307  10.435  14.535
23724W        W24205   8.046  10.891  13.013
23725W        W24206  10.905   9.513  11.887
23726W        W24207   9.435   8.780  12.400
23727W        W24208   9.202   7.392  12.290
23728W        W24209   8.261  10.376  12.127
23729W        W24210   8.760   8.117  13.352
23730W        W24211   8.460   7.486  12.821
23731W        W24212   7.523  10.308  11.369
23732W        W24213   9.339   9.672  12.087
23733W        W24214   8.214  10.467  13.966
23734W        W24215   7.691   9.290  11.662
23735W        W24216   7.576   7.833  12.661
23736W        W24217   9.124   9.798  12.718
23737W        W24218   7.376   7.652  11.738
23738W        W24219  10.040   8.858  13.665
23739W        W24220  10.434   9.916  12.885
23740W        W24221   9.095  10.400  12.716
23741W        W24222   8.507  10.504  11.627
23742W        W24223   9.789   7.407  11.057
23743W        W24224   7.589  10.667  12.798
23744W        W24225   9.786   8.425  14.433
23745W        W24226   7.769   7.955  14.432
23746W        W24227   8.191   8.544  11.490
23747W        W24228   9.954   8.871  14.307
23748W        W24229   8.297   9.152  13.016
23749W        W24230   9.771   7.438  12.136
23750W        W24231   8.902  10.869  12.639
23751W        W24232  10.116  10.331  13.576
23752W        W24233   9.700  10.480  12.687
23753W        W24234   9.719   9.460  12.281
23754W        W24235   9.181   7.685  11.352
23755W        W24236  10.862   7.313  12.074
23756W        W24237   8.550   8.948  11.237
23757W        W24238  10.716   8.285  12.227
23758W        W24239   9.408   9.455  11.104
23759W        W24240  10.344   9.655  13.852
23760W        W24241   8.613   8.031  14.225
23761W        W24242   8.433   8.615  13.466
23762W        W24243  10.525  10.110  13.743
23763W        W24244   9.625   8.060  14.120
23764W        W24245   7.469   8.531  13.897
23765W        W24246   9.229   9.008  13.623
23766W        W24247   7.733   9.063  13.170
23767W        W24248  10.050   9.349  13.520
23768W        W24249   9.822  10.729  14.331
23769W        W24250   9.718   8.468  13.884
23770W        W24251   9.995  10.522  12.289
23771W        W24252   8.997  10.242  13.612
23772W        W24253   8.482  10.597  12.881
23773W        W24254  10.287   9.768  13.300
23774W        W24255   9.337   9.840  14.437
23775W        W24256   7.942   9.793  12.776
23776W        W24257  10.288   9.552  12.421
23777W        W24258   9.929  10.618  13.172
23778W        W24259   7.907  10.347  13.042
23779W        W24260   9.379  10.565  11.763
23780W        W24261   8.687   9.820  14.401
23781W        W24262   8.813  10.058  11.778
23782W        W24263   8.034   8.798  11.037
23783W        W24264   7.749   9.777  17.459
23784W        W24265  10.454   9.507  15.229
23785W        W24266  10.584  10.592  17.256
23786W        W24267   8.502  10.583  14.782
23787W        W24268   8.585   8.735  15.765
23788W        W24269   8.100   8.583  15.929
23789W        W24270   9.091   9.398  15.363
23790W        W24271   8.766  10.490  17.718
23791W        W24272   7.415   8.051  17.681
23792W        W24273   8.177   7.331  17.483
23793W        W24274   9.871   7.719  16.370
23794W        W24275   9.520   8.590  14.940
23795W        W24276   7.456   7.816  17.156
23796W        W24277   9.077   9.825  14.909
23797W        W24278   7.509   8.608  16.602
23798W        W24279  10.861   8.358  16.338
23799W        W24280  10.625   9.401  17.197
23800W        W24281   8.933   8.734  16.224
23801W        W24282   9.479  10.073  16.593
23802W        W24283   7.979   9.507  16.825
23803W        W24284   7.338   9.035  16.396
23804W        W24285   8.374   9.007  17.588
23805W        W24286   8.261  10.234  16.287
23806W        W24287   9.382   9.923  17.421
23807W        W24288   8.602   8.563  16.646
23808W        W24289   8.951   9.156  17.625
23809W        W24290  10.192  10.082  17.746
23810W        W24291   7.773   7.664  15.744
23811W        W24292  10.763   9.705  16.033
23812W        W24293  10.176   8.105  16.600
23813W        W24294  10.461   8.058  14.695
23814W        W24295  10.926   8.859  17.001
23815W        W24296   8.893  10.566  16.754
23816W        W24297  10.667  10.032  15.192
23817W        W24298   8.189  10.864  15.622
23818W        W24299   7.986   7.618  17.048
23819W        W24300  10.609   8.636  17.323
23820W        W24301  10.014   9.058  15.782
23821W        W24302   9.980   8.746  14.809
23822W        W24303   9.188   9.890  16.949
23823W        W24304   8.994   8.220  16.148
23824W        W24305   9.594  10.307  17.142
23825W        W24306  10.465   9.098  15.564
23826W        W24307   9.367   7.756  15.580
23827W        W24308   8.024  10.450  15.263
23828W        W24309   7.395   7.949  15.862
23829W        W24310  10.181   8.556  16.336
23830W        W24311   7.639  10.173  16.251
23831W        W24312   8.980  10.523  15.121
23832W        W24313  10.372   8.549  14.585
23833W        W24314   7.395  10.307  16.749
23834W        W24315   8.186   9.879  17.229
23835W        W24316   8.581   7.644  16.941
23836W        W24317  10.810   7.406  16.238
23837W        W24318   8.029   9.278  14.706
23838W        W24319   7.684   8.311  14.885
23839W        W24320   7.746  10.267  15.679
23840W        W24321  10.209  10.609  17.641
23841W        W24322   9.135   8.251  15.325
23842W        W24323  10.518  10.649  16.097
23843W        W24324  10.908  10.158  15.829
23844W        W24325   9.535   9.450  17.313
23845W        W24326   7.301   9.001  15.519
23846W        W24327   8.412   9.416  17.092
23847W        W24328   9.616   8.680  15.470
23848W        W24329   9.493   9.170  15.574
23849W        W24330   7.836   8.590  17.048
23850W        W24331   7.711   7.383  16.129
23851W        W24332   9.479   7.730  16.690
23852W        W24333   9.482   8.064  15.031
23853W        W24334  10.665  10.457  17.785
23854W        W24335   9.632   7.538  17.824
23855W        W24336  10.081   8.006  17.542
23856W        W24337   9.881   7.944  15.812
23857W        W24338   8.014  10.654  16.202
23858W        W24339   8.672   8.371  15.188
23859W        W24340  10.293   8.139  15.533
23860W        W24341  10.660   8.621  15.478
23861W        W24342   8.329   7.374  15.184
23862W        W24343  10.650   7.908  16.219
23863W        W24344  10.800  10.157  14.664
23864W        W24345   7.707   9.360  16.366
23865W        W24346   9.624   7.947  14.596
23866W        W24347  10.758  10.279  16.316
23867W        W24348  10.797   7.473  17.066
23868W        W24349   9.242   8.685  17.620
23869W        W24350   9.335  10.024  15.323
23870W        W24351   9.409   7.295  16.372
23871W        W24352   8.021   8.198  16.435
23872W        W24353   7.575   9.398  17.209
23873W        W24354   9.434  10.591  15.915
23874W        W24355  10.628   8.188  16.787
23875W        W24356   9.265  10.535  17.554
23876W        W24357  10.608   9.594  14.759
23877W        W24358   9.043   9.077  15.820
23878W        W24359  10.895   7.588  17.561
23879W        W24360   9.044   9.423  17.155
23880W        W24361   9.261   8.309  16.600
23881W        W24362  10.113   8.607  15.438
23882W        W24363  10.400   8.340  15.080
23883W        W24364  10.209  10.380  15.469
23884W        W24365  10.043   9.983  16.265
23885W        W24366   9.939   9.062  15.243
23886W        W24367   9.372   9.272  16.229
23887W        W24368  10.253   9.060  16.296
23888W        W24369   7.628   8.075  16.720
23889W        W24370  10.406   9.127  17.547
23890W        W24371  10.757  10.745  16.693
23891W        W24372   8.687  10.189  16.095
23892W        W24373   9.694  10.722  17.419
23893W        W24374   9.688   8.052  17.183
23894W        W24375   8.895  10.760  17.244
23895W        W24376  10.592   7.714  15.710
23896W        W24377  10.383   9.033  17.011
23897W        W24378   7.366   8.354  17.049
23898W        W24379  10.226   8.149  16.067
23899W        W24380   9.522   9.999  16.062
23900W        W24381   8.778  10.590  15.675
23901W        W24382   7.893   7.770  14.933
23902W        W24383   8.997   7.424  16.743
23903W        W24384   8.025  10.544  14.591
23904W        W24385   8.399   9.010  15.342
23905W        W24386   9.053   9.639  17.655
23906W        W24387   8.883   7.997  15.645
23907W        W24388  10.239   7.594  16.073
23908W        W24389   9.959  10.876  16.401
23909W        W24390   9.371  10.524  16.741
23910W        W24391   8.767   9.561  16.702
23911W        W24392  10.537  10.284  16.828
23912W        W24393   8.231   7.787  15.597
23913W        W24394   8.753  10.084  16.557
23914W        W24395   8.236   8.015  14.622
23915W        W24396   9.037   8.624  17.016
23916W        W24397   9.885   7.490  16.886
23917W        W24398   7.305   9.333  16.771
23918W        W24399   9.009   9.151  14.929
23919W        W24400   8.277   7.466  14.699
23920W        W24401   9.015   8.547  15.750
23921W        W24402   9.985   7.523  17.449
23922W        W24403   8.573   9.535  17.558
23923W        W24404   9.994   9.347  17.668
23924W        W24405   8.500   8.103  16.566
23925W        W24406   7.926   8.059  15.964
23926W        W24407   7.712  10.771  15.640
23927W        W24408   9.044  10.101  17.765
23928W        W24409   8.079   9.586  15.124
23929W        W24410   9.759   8.971  16.345
23930W        W24411  10.039   8.770  16.744
23931W        W24412   9.244   9.444  16.678
23932W        W24413   9.714   9.818  14.810
23933W        W24414   9.386   7.839  16.138
23934W        W24415  10.865   8.117  15.406
23935W        W24416   7.359  10.706  17.437
23936W        W24417   7.776   9.932  16.969
23937W        W24418   7.343  10.778  15.201
23938W        W24419   9.242   8.048  17.007
23939W        W24420   8.605  10.071  14.856
23940W        W24421  10.510  10.453  15.042
23941W        W24422   9.485   9.106  15.056
23942W        W24423   8.328   8.297  15.573
23943W        W24424   9.160   8.207  14.625
23944W        W24425  10.097   7.678  15.420
23945W        W24426   7.427   7.526  14.868
23946W        W24427   8.713   9.845  17.158
23947W        W24428   8.254   9.713  14.648
23948W        W24429   7.495   9.954  15.416
23949W        W24430   9.412   7.726  17.400
23950W        W24431   8.607   7.494  15.681
23951W        W24432   9.666   7.571  15.186
23952W        W24433   7.611   7.503  16.763
23953W        W24434   7.659   8.466  16.133
23954W        W24435  10.348   7.574  16.539
23955W        W24436   7.770   8.072  15.353
23956W        W24437  10.341   7.760  16.969
23957W        W24438  10.737   8.963  14.654
23958W        W24439   8.029   7.721  16.473
23959W        W24440   9.143   8.293  17.413
23960W        W24441   7.291   7.983  14.891
23961W        W24442   8.077   9.372  17.452
23962W        W24443   9.435   8.770  16.631
23963W        W24444   9.302  10.849  14.927
23964W        W24445   7.448   9.356  14.624
23965W        W24446   7.704   8.934  17.381
23966W        W24447   8.695   9.039  17.175
23967W        W24448  10.463   7.398  17.437
23968W        W24449  10.861   9.008  17.428
23969W        W24450  10.849   9.208  15.114
23970W        W24451   9.712   9.540  15.213
23971W        W24452  10.186  10.840  14.908
23972W        W24453  10.617   8.647  16.663
23973W        W24454   8.780   7.406  14.867
23974W        W24455  10.319  10.005  14.810
23975W        W24456  10.648   8.083  17.356
23976W        W24457   9.859  10.742  15.324
23977W        W24458  10.098   9.361  16.691
23978W        W24459   8.348   7.777  17.358
23979W        W24460   8.320  10.025  15.309
23980W        W24461  10.075   9.523  15.573
23981W        W24462   7.843   8.149  17.297
23982W        W24463   9.172  10.211  15.761
23983W        W24464  10.922   8.771  15.942
23984W        W24465   9.144   7.404  17.661
23985W        W24466   9.924  10.109  16.740
23986W        W24467  10.227  10.453  16.448
23987W        W24468   9.446  10.255  14.876
23988W        W24469   7.456  10.147  17.718
23989W        W24470   8.199   8.139  16.956
23990W        W24471   8.169   7.487  16.066
23991W        W24472   9.790   8.329  16.758
23992W        W24473   8.588   9.500  14.958
23993W        W24474  10.300  10.882  15.677
23994W        W24475   8.399   7.902  16.122
23995W        W24476   8.168   9.395  16.212
23996W        W24477   8.481  10.806  16.962
23997W        W24478   9.707   9.090  16.927
23998W        W24479   7.556   8.888  14.842
23999W        W24480  10.527   7.870  15.158
24000W        W24481   8.666   7.389  17.561
24001W        W24482  10.372  10.191  16.019
24002W        W24483  10.401   8.747  15.924
24003W        W24484   8.518   8.420  16.140
24004W        W24485   8.763   8.682  17.464
24005W        W24486   9.874   9.835  17.327
24006W        W24487   8.524   8.289  17.439
24007W        W24488   8.503  10.755  16.055
24008W        W24489   7.932  10.075  14.819
24009W        W24490  10.449   9.833  15.629
24010W        W24491   8.053   8.625  17.515
24011W        W24492  10.826   8.555  14.996
24012W        W24493   8.571   9.612  15.467
24013W        W24494   9.670   8.994  17.548
24014W        W24495   9.561   8.622  17.092
24015W        W24496   8.121   8.994  17.121
24016W        W24497  10.331  10.882  16.950
24017W        W24498   7.786   7.666  17.531
24018W        W24499   8.125   8.689  16.584
24019W        W24500   8.494   8.503  14.706
24020W        W24501   7.297  10.262  17.251
24021W        W24502   8.882   8.971  16.694
24022W        W24503   8.705   7.996  14.799
24023W        W24504   7.840   8.812  15.580
24024W        W24505   7.611  10.664  17.017
24025W        W24506  10.406   8.890  15.125
24026W        W24507   9.937  10.015  15.774
24027W        W24508  10.501   7.403  15.247
24028W        W24509  10.021   9.878  15.258
24029W        W24510   8.923   8.936  15.343
24030W        W24511  10.110   7.740  14.866
24031W        W24512  10.175   8.347  17.052
24032W        W24513   7.884   8.940  16.259
24033W        W24514   8.178   9.879  15.908
24034W        W24515   9.941   8.499  15.873
24035W        W24516   8.964   7.878  16.569
24036W        W24517  10.926   9.789  17.080
24037W        W24518  10.844   7.776  16.641
24038W        W24519   7.383  10.606  16.017
24039W        W24520   7.892   9.793  15.553
24040W        W24521  10.681   9.231  15.998
24041W        W24522  10.035   9.408  14.878
24042W        W24523   9.330  10.929  17.090
24043W        W24524   9.002   7.361  15.407
24044W        W24525   9.715   8.230  16.266
24045W        W24526   7.401   9.817  16.598
24046W        W24527   8.654   7.779  15.239
24047W        W24528   9.452   8.244  15.802
24048W        W24529   9.657   9.654  16.924
24049W        W24530   7.811  10.259  17.359
24050W        W24531   8.253   8.039  15.096
24051W        W24532   9.770   8.181  15.421
24052W        W24533   9.728  10.289  17.658
24053W        W24534   8.413   8.881  16.257
24054W        W24535   8.068  10.579  17.122
24055W        W24536  10.813  10.696  14.723
24056W        W24537   9.671   9.630  16.407
24057W        W24538   8.107   9.279  15.649
24058W        W24539   8.478  10.286  17.044
24059W        W24540   8.856   7.705  16.085
24060W        W24541   7.467   9.689  15.015
24061W        W24542   8.986   8.640  14.885
24062W        W24543   7.632   9.189  15.904
24063W        W24544   8.922   7.831  17.368
24064W        W24545  10.594   7.540  14.795
24065W        W24546  10.899   9.637  17.568
24066W        W24547   8.046  10.891  16.657
24067W        W24548  10.905   9.513  15.531
24068W        W24549   9.435   8.780  16.044
24069W        W24550   9.202   7.392  15.934
24070W        W24551   8.261  10.376  15.771
24071W        W24552   8.760   8.117  16.996
24072W        W24553   8.460   7.486  16.465
24073W        W24554   7.523  10.308  15.013
24074W        W24555   9.339   9.672  15.731
24075W        W24556   8.214  10.467  17.610
24076W        W24557   7.691   9.290  15.306
24077W        W24558   7.576   7.833  16.305
24078W        W24559   9.124   9.798  16.362
24079W        W24560   7.376   7.652  15.382
24080W        W24561  10.040   8.858  17.309
24081W        W24562   9.917   8.244  14.881
24082W        W24563  10.434   9.916  16.529
24083W        W24564   9.095  10.400  16.360
24084W        W24565   8.507  10.504  15.271
24085W        W24566   9.789   7.407  14.701
24086W        W24567   7.500   8.555  15.409
24087W        W24568   8.191   8.544  15.134
24088W        W24569   8.297   9.152  16.660
24089W        W24570   9.771   7.438  15.780
24090W        W24571   8.902  10.869  16.283
24091W        W24572  10.116  10.331  17.220
24092W        W24573   9.700  10.480  16.331
24093W        W24574   9.719   9.460  15.925
24094W        W24575   9.181   7.685  14.996
24095W        W24576  10.862   7.313  15.718
24096W        W24577   8.550   8.948  14.881
24097W        W24578  10.716   8.285  15.871
24098W        W24579   9.408   9.455  14.748
24099W        W24580  10.344   9.655  17.496
24100W        W24581   9.998  10.356  14.963
24101W        W24582   8.433   8.615  17.110
24102W        W24583  10.525  10.110  17.387
24103W        W24584   7.469   8.531  17.541
24104W        W24585   9.229   9.008  17.267
24105W        W24586   7.586   9.766  15.924
24106W        W24587   7.733   9.063  16.814
24107W        W24588  10.050   9.349  17.164
24108W        W24589   9.822  10.729  17.975
24109W        W24590   9.718   8.468  17.528
24110W        W24591   9.995  10.522  15.933
24111W        W24592   8.997  10.242  17.256
24112W        W24593   8.482  10.597  16.525
24113W        W24594  10.287   9.768  16.944
24114W        W24595   7.942   9.793  16.420
24115W        W24596  10.288   9.552  16.065
24116W        W24597   9.929  10.618  16.816
24117W        W24598   7.907  10.347  16.686
24118W        W24599   9.379  10.565  15.407
24119W        W24600   8.813  10.058  15.422
24120W        W24601   8.034   8.798  14.681
24121W        W24602   7.373  14.528   3.359
24122W        W24603   7.749  13.421   2.882
24123W        W24604  10.454  13.151   0.652
24124W        W24605  10.584  14.236   2.679
24125W        W24606   8.502  14.227   0.205
24126W        W24607   8.100  12.227   1.352
24127W        W24608   9.091  13.042   0.786
24128W        W24609   8.766  14.134   3.141
24129W        W24610   7.415  11.695   3.104
24130W        W24611   8.177  10.975   2.906
24131W        W24612   9.871  11.363   1.793
24132W        W24613   9.520  12.234   0.363
24133W        W24614  10.090  11.668   3.454
24134W        W24615   7.456  11.460   2.579
24135W        W24616   7.555  14.079   3.600
24136W        W24617   9.077  13.469   0.332
24137W        W24618   7.509  12.252   2.025
24138W        W24619   8.402  12.143   3.262
24139W        W24620  10.861  12.002   1.761
24140W        W24621   8.933  12.378   1.647
24141W        W24622   9.479  13.717   2.016
24142W        W24623   7.979  13.151   2.248
24143W        W24624   7.338  12.679   1.819
24144W        W24625   8.374  12.651   3.011
24145W        W24626  10.645  12.434   3.265
24146W        W24627   8.261  13.878   1.710
24147W        W24628   9.382  13.567   2.844
24148W        W24629   8.602  12.207   2.069
24149W        W24630   8.894  12.991   1.712
24150W        W24631   9.891  13.764   3.560
24151W        W24632   8.970  13.084   3.570
24152W        W24633   8.951  12.800   3.048
24153W        W24634   7.360  12.191   3.570
24154W        W24635  10.192  13.726   3.169
24155W        W24636   7.773  11.308   1.167
24156W        W24637   8.300  13.566   2.166
24157W        W24638  10.763  13.349   1.456
24158W        W24639  10.176  11.749   2.023
24159W        W24640  10.461  11.702   0.118
24160W        W24641  10.926  12.503   2.424
24161W        W24642   8.893  14.210   2.177
24162W        W24643  10.667  13.676   0.615
24163W        W24644   7.796  14.462   0.369
24164W        W24645   8.189  14.508   1.045
24165W        W24646   7.986  11.262   2.471
24166W        W24647  10.609  12.280   2.746
24167W        W24648  10.014  12.702   1.205
24168W        W24649   9.980  12.390   0.232
24169W        W24650   9.188  13.534   2.372
24170W        W24651   8.994  11.864   1.571
24171W        W24652   9.594  13.951   2.565
24172W        W24653  10.465  12.742   0.987
24173W        W24654   9.367  11.400   1.003
24174W        W24655   8.024  14.094   0.686
24175W        W24656   7.395  11.593   1.285
24176W        W24657  10.181  12.200   1.759
24177W        W24658   7.639  13.817   1.674
24178W        W24659   8.980  14.167   0.544
24179W        W24660  10.372  12.193   0.008
24180W        W24661   7.395  13.951   2.172
24181W        W24662   8.186  13.523   2.652
24182W        W24663   8.559  12.883   1.271
24183W        W24664   8.581  11.288   2.364
24184W        W24665  10.810  11.050   1.661
24185W        W24666   8.029  12.922   0.129
24186W        W24667   7.684  11.955   0.308
24187W        W24668   7.746  13.911   1.102
24188W        W24669   8.877  13.394   1.350
24189W        W24670  10.209  14.253   3.064
24190W        W24671   9.135  11.895   0.748
24191W        W24672  10.518  14.293   1.520
24192W        W24673  10.195  12.146   3.118
24193W        W24674  10.908  13.802   1.252
24194W        W24675   9.535  13.094   2.736
24195W        W24676   7.301  12.645   0.942
24196W        W24677   8.412  13.060   2.515
24197W        W24678   9.616  12.324   0.893
24198W        W24679   9.493  12.814   0.997
24199W        W24680   7.836  12.234   2.471
24200W        W24681   7.821  12.110   3.393
24201W        W24682   7.711  11.027   1.552
24202W        W24683   9.479  11.374   2.113
24203W        W24684   9.127  11.559   3.276
24204W        W24685   9.482  11.708   0.454
24205W        W24686  10.665  14.101   3.208
24206W        W24687   9.632  11.182   3.247
24207W        W24688  10.651  13.483   3.369
24208W        W24689  10.081  11.650   2.965
24209W        W24690   9.881  11.588   1.235
24210W        W24691  10.274  12.722   3.639
24211W        W24692   8.014  14.298   1.625
24212W        W24693   8.672  12.015   0.611
24213W        W24694   8.241  11.299   3.275
24214W        W24695  10.293  11.783   0.956
24215W        W24696  10.660  12.265   0.901
24216W        W24697   8.403  14.482   3.372
24217W        W24698   8.329  11.018   0.607
24218W        W24699  10.650  11.552   1.642
24219W        W24700  10.800  13.801   0.087
24220W        W24701   7.707  13.004   1.789
24221W        W24702   9.624  11.591   0.019
24222W        W24703  10.758  13.923   1.739
24223W        W24704  10.797  11.117   2.489
24224W        W24705   9.242  12.329   3.043
24225W        W24706   9.335  13.668   0.746
24226W        W24707   9.735  12.962   3.486
24227W        W24708   9.409  10.939   1.795
24228W        W24709   8.021  11.842   1.858
24229W        W24710   7.575  13.042   2.632
24230W        W24711   9.434  14.235   1.338
24231W        W24712  10.628  11.832   2.210
24232W        W24713   9.265  14.179   2.977
24233W        W24714  10.608  13.238   0.182
24234W        W24715   9.043  12.721   1.243
24235W        W24716  10.895  11.232   2.984
24236W        W24717   9.044  13.067   2.578
24237W        W24718   9.261  11.953   2.023
24238W        W24719  10.113  12.251   0.861
24239W        W24720  10.400  11.984   0.503
24240W        W24721  10.209  14.024   0.892
24241W        W24722  10.043  13.627   1.688
24242W        W24723   9.939  12.706   0.666
24243W        W24724   9.372  12.916   1.652
24244W        W24725  10.253  12.704   1.719
24245W        W24726   7.628  11.719   2.143
24246W        W24727  10.406  12.771   2.970
24247W        W24728  10.757  14.389   2.116
24248W        W24729   8.687  13.833   1.518
24249W        W24730   9.694  14.366   2.842
24250W        W24731   9.688  11.696   2.606
24251W        W24732   8.895  14.404   2.667
24252W        W24733  10.592  11.358   1.133
24253W        W24734  10.383  12.677   2.434
24254W        W24735   7.366  11.998   2.472
24255W        W24736  10.226  11.793   1.490
24256W        W24737  10.637  11.944   3.267
24257W        W24738   9.522  13.643   1.485
24258W        W24739   8.778  14.234   1.098
24259W        W24740   7.893  11.414   0.356
24260W        W24741   8.997  11.068   2.166
24261W        W24742   8.025  14.188   0.014
24262W        W24743   8.399  12.654   0.765
24263W        W24744   9.053  13.283   3.078
24264W        W24745   8.883  11.641   1.068
24265W        W24746  10.239  11.238   1.496
24266W        W24747   9.959  14.520   1.824
24267W        W24748   9.371  14.168   2.164
24268W        W24749   8.767  13.205   2.125
24269W        W24750  10.537  13.928   2.251
24270W        W24751   8.231  11.431   1.020
24271W        W24752   8.753  13.728   1.980
24272W        W24753   8.236  11.659   0.045
24273W        W24754   9.037  12.268   2.439
24274W        W24755   9.885  11.134   2.309
24275W        W24756   7.305  12.977   2.194
24276W        W24757   9.009  12.795   0.352
24277W        W24758   8.277  11.110   0.122
24278W        W24759   9.015  12.191   1.173
24279W        W24760   9.985  11.167   2.872
24280W        W24761   8.573  13.179   2.981
24281W        W24762   9.377  12.961   3.198
24282W        W24763   9.994  12.991   3.091
24283W        W24764   9.278  11.131   3.596
24284W        W24765   8.500  11.747   1.989
24285W        W24766   7.926  11.703   1.387
24286W        W24767   7.712  14.415   1.063
24287W        W24768   9.044  13.745   3.188
24288W        W24769   8.079  13.230   0.547
24289W        W24770   9.759  12.615   1.768
24290W        W24771  10.039  12.414   2.167
24291W        W24772   9.244  13.088   2.101
24292W        W24773   9.714  13.462   0.233
24293W        W24774   9.386  11.483   1.561
24294W        W24775  10.865  11.761   0.829
24295W        W24776   7.359  14.350   2.860
24296W        W24777   7.776  13.576   2.392
24297W        W24778   7.343  14.422   0.624
24298W        W24779   9.242  11.692   2.430
24299W        W24780   8.605  13.715   0.279
24300W        W24781  10.510  14.097   0.465
24301W        W24782   9.485  12.750   0.479
24302W        W24783   8.328  11.941   0.996
24303W        W24784   9.160  11.851   0.048
24304W        W24785   9.744  13.416   3.226
24305W        W24786  10.097  11.322   0.843
24306W        W24787   7.427  11.170   0.291
24307W        W24788   8.713  13.489   2.581
24308W        W24789   8.512  13.405   1.673
24309W        W24790   8.254  13.357   0.071
24310W        W24791   7.495  13.598   0.839
24311W        W24792   7.999  12.668   3.281
24312W        W24793   8.703  11.228   3.467
24313W        W24794   9.412  11.370   2.823
24314W        W24795   8.607  11.138   1.104
24315W        W24796   9.666  11.215   0.609
24316W        W24797   7.611  11.147   2.186
24317W        W24798   7.659  12.110   1.556
24318W        W24799  10.348  11.218   1.962
24319W        W24800   7.770  11.716   0.776
24320W        W24801  10.341  11.404   2.392
24321W        W24802  10.737  12.607   0.077
24322W        W24803   8.029  11.365   1.896
24323W        W24804   9.143  11.937   2.836
24324W        W24805   7.291  11.627   0.314
24325W        W24806   8.077  13.016   2.875
24326W        W24807   9.435  12.414   2.054
24327W        W24808   9.302  14.493   0.350
24328W        W24809   7.448  13.000   0.047
24329W        W24810   8.183  13.411   3.173
24330W        W24811   7.704  12.578   2.804
24331W        W24812   8.695  12.683   2.598
24332W        W24813  10.463  11.042   2.860
24333W        W24814  10.861  12.652   2.851
24334W        W24815  10.849  12.852   0.537
24335W        W24816   9.712  13.184   0.636
24336W        W24817  10.186  14.484   0.331
24337W        W24818   9.363  12.474   3.473
24338W        W24819   7.693  13.441   3.513
24339W        W24820  10.899  11.363   3.465
24340W        W24821  10.617  12.291   2.086
24341W        W24822   8.925  14.421   3.563
24342W        W24823   8.780  11.050   0.290
24343W        W24824  10.319  13.649   0.233
24344W        W24825   8.088  11.742   3.119
24345W        W24826   8.522  13.736   2.981
24346W        W24827  10.648  11.727   2.779
24347W        W24828   9.859  14.386   0.747
24348W        W24829  10.098  13.005   2.114
24349W        W24830   8.348  11.421   2.781
24350W        W24831   8.817  12.490   3.538
24351W        W24832   8.320  13.669   0.732
24352W        W24833  10.075  13.167   0.996
24353W        W24834   7.843  11.793   2.720
24354W        W24835   9.172  13.855   1.184
24355W        W24836  10.922  12.415   1.365
24356W        W24837   9.144  11.048   3.084
24357W        W24838   9.924  13.753   2.163
24358W        W24839  10.227  14.097   1.871
24359W        W24840   9.446  13.899   0.299
24360W        W24841   7.456  13.791   3.141
24361W        W24842   8.199  11.783   2.379
24362W        W24843   8.169  11.131   1.489
24363W        W24844   9.790  11.973   2.181
24364W        W24845   8.588  13.144   0.381
24365W        W24846  10.586  13.086   1.880
24366W        W24847   7.913  13.844   3.303
24367W        W24848  10.300  14.526   1.100
24368W        W24849   8.399  11.546   1.545
24369W        W24850   8.168  13.039   1.635
24370W        W24851   8.481  14.450   2.385
24371W        W24852  10.548  14.546   3.417
24372W        W24853   9.707  12.734   2.350
24373W        W24854   7.556  12.532   0.265
24374W        W24855  10.690  14.190   0.962
24375W        W24856  10.527  11.514   0.581
24376W        W24857   8.666  11.033   2.984
24377W        W24858  10.372  13.835   1.442
24378W        W24859  10.401  12.391   1.347
24379W        W24860   8.518  12.064   1.563
24380W        W24861   8.763  12.326   2.887
24381W        W24862   9.874  13.479   2.750
24382W        W24863   8.524  11.933   2.862
24383W        W24864   8.503  14.399   1.478
24384W        W24865   7.820  14.358   3.112
24385W        W24866   7.932  13.719   0.242
24386W        W24867  10.449  13.477   1.052
24387W        W24868   8.053  12.269   2.938
24388W        W24869  10.826  12.199   0.419
24389W        W24870   8.571  13.256   0.890
24390W        W24871   9.670  12.638   2.971
24391W        W24872   9.561  12.266   2.515
24392W        W24873   8.121  12.638   2.544
24393W        W24874  10.331  14.526   2.373
24394W        W24875  10.122  11.160   3.367
24395W        W24876   7.786  11.310   2.954
24396W        W24877   8.125  12.333   2.007
24397W        W24878   8.494  12.147   0.129
24398W        W24879   7.297  13.906   2.674
24399W        W24880   8.882  12.615   2.117
24400W        W24881   8.705  11.640   0.222
24401W        W24882   7.840  12.456   1.003
24402W        W24883   7.611  14.308   2.440
24403W        W24884  10.406  12.534   0.548
24404W        W24885   9.937  13.659   1.197
24405W        W24886   7.535  12.583   3.374
24406W        W24887  10.501  11.047   0.670
24407W        W24888  10.021  13.522   0.681
24408W        W24889   8.923  12.580   0.766
24409W        W24890  10.110  11.384   0.289
24410W        W24891  10.175  11.991   2.475
24411W        W24892   7.884  12.584   1.682
24412W        W24893   8.178  13.523   1.331
24413W        W24894   9.941  12.143   1.296
24414W        W24895   8.964  11.522   1.992
24415W        W24896  10.926  13.433   2.503
24416W        W24897  10.844  11.420   2.064
24417W        W24898   7.383  14.250   1.440
24418W        W24899   7.892  13.437   0.976
24419W        W24900   7.807  11.054   3.529
24420W        W24901   8.926  13.907   3.631
24421W        W24902  10.681  12.875   1.421
24422W        W24903  10.035  13.052   0.301
24423W        W24904   9.330  14.573   2.513
24424W        W24905  10.187  13.295   3.550
24425W        W24906   9.002  11.005   0.830
24426W        W24907   9.715  11.874   1.689
24427W        W24908   7.401  13.461   2.021
24428W        W24909   8.654  11.423   0.662
24429W        W24910   8.458  12.907   3.511
24430W        W24911   9.657  13.298   2.347
24431W        W24912   7.811  13.903   2.782
24432W        W24913   8.402  13.886   3.505
24433W        W24914   8.253  11.683   0.519
24434W        W24915   9.770  11.825   0.844
24435W        W24916   9.728  13.933   3.081
24436W        W24917   8.413  12.525   1.680
24437W        W24918   8.068  14.223   2.545
24438W        W24919  10.813  14.340   0.146
24439W        W24920   7.676  13.012   3.142
24440W        W24921   9.671  13.274   1.830
24441W        W24922   8.107  12.923   1.072
24442W        W24923   8.478  13.930   2.467
24443W        W24924   8.856  11.349   1.508
24444W        W24925   7.467  13.333   0.438
24445W        W24926   8.986  12.284   0.308
24446W        W24927   7.632  12.833   1.327
24447W        W24928   8.922  11.475   2.791
24448W        W24929  10.594  11.184   0.218
24449W        W24930  10.687  12.930   3.317
24450W        W24931   9.341  14.187   3.469
24451W        W24932  10.899  13.281   2.991
24452W        W24933  10.307  14.079   3.602
24453W        W24934   8.046  14.535   2.080
24454W        W24935  10.905  13.157   0.954
24455W        W24936   9.435  12.424   1.467
24456W        W24937   9.202  11.036   1.357
24457W        W24938   8.261  14.020   1.194
24458W        W24939   8.760  11.761   2.419
24459W        W24940   8.460  11.130   1.888
24460W        W24941   7.523  13.952   0.436
24461W        W24942   9.339  13.316   1.154
24462W        W24943   8.214  14.111   3.033
24463W        W24944   7.691  12.934   0.729
24464W        W24945   7.576  11.477   1.728
24465W        W24946   9.124  13.442   1.785
24466W        W24947   7.376  11.296   0.805
24467W        W24948  10.040  12.502   2.732
24468W        W24949   9.917  11.888   0.304
24469W        W24950  10.434  13.560   1.952
24470W        W24951   9.095  14.044   1.783
24471W        W24952   8.507  14.148   0.694
24472W        W24953   7.589  14.311   1.865
24473W        W24954   9.786  12.069   3.500
24474W        W24955   7.769  11.599   3.499
24475W        W24956   7.500  12.199   0.832
24476W        W24957   8.191  12.188   0.557
24477W        W24958   9.954  12.515   3.374
24478W        W24959   8.297  12.796   2.083
24479W        W24960   9.771  11.082   1.203
24480W        W24961   8.902  14.513   1.706
24481W        W24962  10.116  13.975   2.643
24482W        W24963   9.700  14.124   1.754
24483W        W24964   9.719  13.104   1.348
24484W        W24965   9.181  11.329   0.419
24485W        W24966  10.862  10.957   1.141
24486W        W24967   8.550  12.592   0.304
24487W        W24968  10.716  11.929   1.294
24488W        W24969   9.408  13.099   0.171
24489W        W24970  10.344  13.299   2.919
24490W        W24971   9.998  14.000   0.386
24491W        W24972   8.613  11.675   3.292
24492W        W24973   8.433  12.259   2.533
24493W        W24974  10.525  13.754   2.810
24494W        W24975   9.625  11.704   3.187
24495W        W24976   7.469  12.175   2.964
24496W        W24977   9.229  12.652   2.690
24497W        W24978   7.586  13.410   1.347
24498W        W24979   7.733  12.707   2.237
24499W        W24980  10.050  12.993   2.587
24500W        W24981   9.822  14.373   3.398
24501W        W24982   9.718  12.112   2.951
24502W        W24983   9.995  14.166   1.356
24503W        W24984   8.997  13.886   2.679
24504W        W24985   8.482  14.241   1.948
24505W        W24986  10.287  13.412   2.367
24506W        W24987   9.337  13.484   3.504
24507W        W24988   7.942  13.437   1.843
24508W        W24989  10.288  13.196   1.488
24509W        W24990   9.929  14.262   2.239
24510W        W24991   7.907  13.991   2.109
24511W        W24992   8.928  12.043   3.319
24512W        W24993   9.379  14.209   0.830
24513W        W24994   8.687  13.464   3.468
24514W        W24995   8.813  13.702   0.845
24515W        W24996   8.034  12.442   0.104
24516W        W24997   7.373  14.528   7.003
24517W        W24998   7.749  13.421   6.526
24518W        W24999  10.584  14.236   6.323
24519W        W25000   8.502  14.227   3.849
24520W        W25001   8.585  12.379   4.832
24521W        W25002   8.100  12.227   4.996
24522W        W25003   9.091  13.042   4.430
24523W        W25004   8.766  14.134   6.785
24524W        W25005   7.415  11.695   6.748
24525W        W25006   8.177  10.975   6.550
24526W        W25007   9.871  11.363   5.437
24527W        W25008   9.520  12.234   4.007
24528W        W25009  10.090  11.668   7.098
24529W        W25010   7.456  11.460   6.223
24530W        W25011   7.555  14.079   7.244
24531W        W25012   9.077  13.469   3.976
24532W        W25013   7.509  12.252   5.669
24533W        W25014   8.402  12.143   6.906
24534W        W25015  10.861  12.002   5.405
24535W        W25016  10.625  13.045   6.264
24536W        W25017   8.933  12.378   5.291
24537W        W25018   9.479  13.717   5.660
24538W        W25019   7.979  13.151   5.892
24539W        W25020   7.338  12.679   5.463
24540W        W25021   8.374  12.651   6.655
24541W        W25022  10.645  12.434   6.909
24542W        W25023   8.261  13.878   5.354
24543W        W25024   9.382  13.567   6.488
24544W        W25025   8.602  12.207   5.713
24545W        W25026   8.894  12.991   5.356
24546W        W25027   9.891  13.764   7.204
24547W        W25028   8.970  13.084   7.214
24548W        W25029   8.951  12.800   6.692
24549W        W25030  10.192  13.726   6.813
24550W        W25031   7.773  11.308   4.811
24551W        W25032   8.300  13.566   5.810
24552W        W25033  10.763  13.349   5.100
24553W        W25034  10.176  11.749   5.667
24554W        W25035  10.461  11.702   3.762
24555W        W25036  10.926  12.503   6.068
24556W        W25037   8.893  14.210   5.821
24557W        W25038  10.667  13.676   4.259
24558W        W25039   7.796  14.462   4.013
24559W        W25040   8.189  14.508   4.689
24560W        W25041   7.986  11.262   6.115
24561W        W25042  10.609  12.280   6.390
24562W        W25043  10.014  12.702   4.849
24563W        W25044   9.188  13.534   6.016
24564W        W25045   8.994  11.864   5.215
24565W        W25046   9.594  13.951   6.209
24566W        W25047  10.465  12.742   4.631
24567W        W25048   9.367  11.400   4.647
24568W        W25049   8.024  14.094   4.330
24569W        W25050   7.395  11.593   4.929
24570W        W25051  10.181  12.200   5.403
24571W        W25052   7.639  13.817   5.318
24572W        W25053   8.980  14.167   4.188
24573W        W25054  10.372  12.193   3.652
24574W        W25055   7.395  13.951   5.816
24575W        W25056   8.186  13.523   6.296
24576W        W25057   8.559  12.883   4.915
24577W        W25058   8.581  11.288   6.008
24578W        W25059  10.810  11.050   5.305
24579W        W25060   8.029  12.922   3.773
24580W        W25061   7.684  11.955   3.952
24581W        W25062   7.746  13.911   4.746
24582W        W25063   8.877  13.394   4.994
24583W        W25064  10.209  14.253   6.708
24584W        W25065   9.135  11.895   4.392
24585W        W25066  10.518  14.293   5.164
24586W        W25067  10.195  12.146   6.762
24587W        W25068  10.908  13.802   4.896
24588W        W25069   9.535  13.094   6.380
24589W        W25070   7.301  12.645   4.586
24590W        W25071   8.412  13.060   6.159
24591W        W25072   9.616  12.324   4.537
24592W        W25073   9.493  12.814   4.641
24593W        W25074   7.836  12.234   6.115
24594W        W25075   7.821  12.110   7.037
24595W        W25076   7.711  11.027   5.196
24596W        W25077   9.479  11.374   5.757
24597W        W25078   9.127  11.559   6.920
24598W        W25079   9.482  11.708   4.098
24599W        W25080  10.665  14.101   6.852
24600W        W25081   9.632  11.182   6.891
24601W        W25082  10.651  13.483   7.013
24602W        W25083  10.081  11.650   6.609
24603W        W25084   9.881  11.588   4.879
24604W        W25085  10.274  12.722   7.283
24605W        W25086   8.014  14.298   5.269
24606W        W25087   8.672  12.015   4.255
24607W        W25088   8.241  11.299   6.919
24608W        W25089  10.293  11.783   4.600
24609W        W25090  10.660  12.265   4.545
24610W        W25091   8.403  14.482   7.016
24611W        W25092   8.329  11.018   4.251
24612W        W25093  10.650  11.552   5.286
24613W        W25094  10.800  13.801   3.731
24614W        W25095   7.707  13.004   5.433
24615W        W25096   9.624  11.591   3.663
24616W        W25097  10.758  13.923   5.383
24617W        W25098  10.797  11.117   6.133
24618W        W25099   9.242  12.329   6.687
24619W        W25100   9.335  13.668   4.390
24620W        W25101   9.735  12.962   7.130
24621W        W25102   9.409  10.939   5.439
24622W        W25103   8.021  11.842   5.502
24623W        W25104   7.575  13.042   6.276
24624W        W25105   9.434  14.235   4.982
24625W        W25106  10.628  11.832   5.854
24626W        W25107   9.265  14.179   6.621
24627W        W25108  10.608  13.238   3.826
24628W        W25109   9.043  12.721   4.887
24629W        W25110  10.895  11.232   6.628
24630W        W25111   9.044  13.067   6.222
24631W        W25112   9.261  11.953   5.667
24632W        W25113  10.113  12.251   4.505
24633W        W25114  10.400  11.984   4.147
24634W        W25115  10.209  14.024   4.536
24635W        W25116  10.043  13.627   5.332
24636W        W25117   9.939  12.706   4.310
24637W        W25118   9.372  12.916   5.296
24638W        W25119  10.253  12.704   5.363
24639W        W25120   7.628  11.719   5.787
24640W        W25121  10.406  12.771   6.614
24641W        W25122  10.757  14.389   5.760
24642W        W25123   8.687  13.833   5.162
24643W        W25124   9.694  14.366   6.486
24644W        W25125   9.688  11.696   6.250
24645W        W25126   8.895  14.404   6.311
24646W        W25127  10.592  11.358   4.777
24647W        W25128  10.383  12.677   6.078
24648W        W25129   7.366  11.998   6.116
24649W        W25130  10.226  11.793   5.134
24650W        W25131  10.637  11.944   6.911
24651W        W25132   8.778  14.234   4.742
24652W        W25133   7.893  11.414   4.000
24653W        W25134   8.997  11.068   5.810
24654W        W25135   8.025  14.188   3.658
24655W        W25136   8.399  12.654   4.409
24656W        W25137   9.053  13.283   6.722
24657W        W25138   8.883  11.641   4.712
24658W        W25139  10.239  11.238   5.140
24659W        W25140   9.959  14.520   5.468
24660W        W25141   8.767  13.205   5.769
24661W        W25142  10.537  13.928   5.895
24662W        W25143   8.753  13.728   5.624
24663W        W25144   8.236  11.659   3.689
24664W        W25145   9.037  12.268   6.083
24665W        W25146   9.885  11.134   5.953
24666W        W25147   7.305  12.977   5.838
24667W        W25148   9.009  12.795   3.996
24668W        W25149   8.277  11.110   3.766
24669W        W25150   9.015  12.191   4.817
24670W        W25151   9.985  11.167   6.516
24671W        W25152   8.573  13.179   6.625
24672W        W25153   9.377  12.961   6.842
24673W        W25154   9.994  12.991   6.735
24674W        W25155   9.278  11.131   7.240
24675W        W25156   8.500  11.747   5.633
24676W        W25157   7.926  11.703   5.031
24677W        W25158   7.712  14.415   4.707
24678W        W25159   9.044  13.745   6.832
24679W        W25160   8.079  13.230   4.191
24680W        W25161   9.759  12.615   5.412
24681W        W25162  10.039  12.414   5.811
24682W        W25163   9.244  13.088   5.745
24683W        W25164   9.714  13.462   3.877
24684W        W25165   9.386  11.483   5.205
24685W        W25166  10.865  11.761   4.473
24686W        W25167   7.359  14.350   6.504
24687W        W25168   7.776  13.576   6.036
24688W        W25169   7.343  14.422   4.268
24689W        W25170   9.242  11.692   6.074
24690W        W25171   8.605  13.715   3.923
24691W        W25172  10.510  14.097   4.109
24692W        W25173   9.485  12.750   4.123
24693W        W25174   8.328  11.941   4.640
24694W        W25175   9.160  11.851   3.692
24695W        W25176   9.744  13.416   6.870
24696W        W25177  10.097  11.322   4.487
24697W        W25178   7.427  11.170   3.935
24698W        W25179   8.713  13.489   6.225
24699W        W25180   8.512  13.405   5.317
24700W        W25181   8.254  13.357   3.715
24701W        W25182   7.495  13.598   4.483
24702W        W25183   7.999  12.668   6.925
24703W        W25184   8.703  11.228   7.111
24704W        W25185   9.412  11.370   6.467
24705W        W25186   8.607  11.138   4.748
24706W        W25187   9.666  11.215   4.253
24707W        W25188   7.611  11.147   5.830
24708W        W25189   7.659  12.110   5.200
24709W        W25190  10.348  11.218   5.606
24710W        W25191   7.770  11.716   4.420
24711W        W25192  10.341  11.404   6.036
24712W        W25193  10.737  12.607   3.721
24713W        W25194   8.029  11.365   5.540
24714W        W25195   9.143  11.937   6.480
24715W        W25196   7.291  11.627   3.958
24716W        W25197   8.077  13.016   6.519
24717W        W25198   9.435  12.414   5.698
24718W        W25199   9.302  14.493   3.994
24719W        W25200   7.448  13.000   3.691
24720W        W25201   8.183  13.411   6.817
24721W        W25202   7.704  12.578   6.448
24722W        W25203   8.695  12.683   6.242
24723W        W25204  10.463  11.042   6.504
24724W        W25205  10.861  12.652   6.495
24725W        W25206  10.849  12.852   4.181
24726W        W25207   9.712  13.184   4.280
24727W        W25208  10.186  14.484   3.975
24728W        W25209   9.363  12.474   7.117
24729W        W25210  10.899  11.363   7.109
24730W        W25211  10.617  12.291   5.730
24731W        W25212   8.925  14.421   7.207
24732W        W25213   8.780  11.050   3.934
24733W        W25214  10.319  13.649   3.877
24734W        W25215   8.088  11.742   6.763
24735W        W25216   8.522  13.736   6.625
24736W        W25217  10.648  11.727   6.423
24737W        W25218   9.859  14.386   4.391
24738W        W25219  10.098  13.005   5.758
24739W        W25220   8.348  11.421   6.425
24740W        W25221   8.817  12.490   7.182
24741W        W25222   8.320  13.669   4.376
24742W        W25223  10.075  13.167   4.640
24743W        W25224   7.843  11.793   6.364
24744W        W25225   9.172  13.855   4.828
24745W        W25226  10.922  12.415   5.009
24746W        W25227   9.144  11.048   6.728
24747W        W25228   9.924  13.753   5.807
24748W        W25229  10.227  14.097   5.515
24749W        W25230   9.446  13.899   3.943
24750W        W25231   7.456  13.791   6.785
24751W        W25232   8.199  11.783   6.023
24752W        W25233   8.169  11.131   5.133
24753W        W25234   9.790  11.973   5.825
24754W        W25235   8.588  13.144   4.025
24755W        W25236  10.586  13.086   5.524
24756W        W25237  10.300  14.526   4.744
24757W        W25238   8.399  11.546   5.189
24758W        W25239   8.168  13.039   5.279
24759W        W25240   8.481  14.450   6.029
24760W        W25241  10.548  14.546   7.061
24761W        W25242   9.707  12.734   5.994
24762W        W25243   7.556  12.532   3.909
24763W        W25244  10.690  14.190   4.606
24764W        W25245  10.527  11.514   4.225
24765W        W25246   8.666  11.033   6.628
24766W        W25247  10.372  13.835   5.086
24767W        W25248  10.401  12.391   4.991
24768W        W25249   8.518  12.064   5.207
24769W        W25250   8.763  12.326   6.531
24770W        W25251   9.874  13.479   6.394
24771W        W25252   8.524  11.933   6.506
24772W        W25253   8.503  14.399   5.122
24773W        W25254   7.820  14.358   6.756
24774W        W25255   7.932  13.719   3.886
24775W        W25256  10.449  13.477   4.696
24776W        W25257   8.053  12.269   6.582
24777W        W25258  10.826  12.199   4.063
24778W        W25259   8.571  13.256   4.534
24779W        W25260   9.670  12.638   6.615
24780W        W25261   9.561  12.266   6.159
24781W        W25262   8.121  12.638   6.188
24782W        W25263  10.331  14.526   6.017
24783W        W25264  10.122  11.160   7.011
24784W        W25265   7.786  11.310   6.598
24785W        W25266   8.125  12.333   5.651
24786W        W25267   8.494  12.147   3.773
24787W        W25268   7.297  13.906   6.318
24788W        W25269   8.882  12.615   5.761
24789W        W25270   8.705  11.640   3.866
24790W        W25271   7.840  12.456   4.647
24791W        W25272   7.611  14.308   6.084
24792W        W25273  10.406  12.534   4.192
24793W        W25274  10.501  11.450   6.878
24794W        W25275   9.937  13.659   4.841
24795W        W25276   7.535  12.583   7.018
24796W        W25277  10.501  11.047   4.314
24797W        W25278  10.021  13.522   4.325
24798W        W25279   8.923  12.580   4.410
24799W        W25280  10.110  11.384   3.933
24800W        W25281  10.175  11.991   6.119
24801W        W25282   7.884  12.584   5.326
24802W        W25283   8.178  13.523   4.975
24803W        W25284   9.941  12.143   4.940
24804W        W25285   8.964  11.522   5.636
24805W        W25286  10.926  13.433   6.147
24806W        W25287  10.844  11.420   5.708
24807W        W25288   7.383  14.250   5.084
24808W        W25289   7.892  13.437   4.620
24809W        W25290   7.807  11.054   7.173
24810W        W25291   8.926  13.907   7.275
24811W        W25292  10.681  12.875   5.065
24812W        W25293  10.035  13.052   3.945
24813W        W25294   9.330  14.573   6.157
24814W        W25295  10.187  13.295   7.194
24815W        W25296   9.002  11.005   4.474
24816W        W25297   9.715  11.874   5.333
24817W        W25298   7.401  13.461   5.665
24818W        W25299   8.654  11.423   4.306
24819W        W25300   8.458  12.907   7.155
24820W        W25301   9.452  11.888   4.869
24821W        W25302   9.657  13.298   5.991
24822W        W25303   8.402  13.886   7.149
24823W        W25304   8.253  11.683   4.163
24824W        W25305   9.770  11.825   4.488
24825W        W25306   9.728  13.933   6.725
24826W        W25307   8.413  12.525   5.324
24827W        W25308   8.068  14.223   6.189
24828W        W25309  10.813  14.340   3.790
24829W        W25310   7.676  13.012   6.786
24830W        W25311   9.671  13.274   5.474
24831W        W25312   8.107  12.923   4.716
24832W        W25313   8.478  13.930   6.111
24833W        W25314   8.856  11.349   5.152
24834W        W25315   7.467  13.333   4.082
24835W        W25316   8.986  12.284   3.952
24836W        W25317   7.632  12.833   4.971
24837W        W25318   8.922  11.475   6.435
24838W        W25319  10.594  11.184   3.862
24839W        W25320  10.687  12.930   6.961
24840W        W25321   9.341  14.187   7.113
24841W        W25322  10.899  13.281   6.635
24842W        W25323  10.307  14.079   7.246
24843W        W25324   8.046  14.535   5.724
24844W        W25325  10.905  13.157   4.598
24845W        W25326   9.435  12.424   5.111
24846W        W25327   9.202  11.036   5.001
24847W        W25328   8.261  14.020   4.838
24848W        W25329   8.760  11.761   6.063
24849W        W25330   8.460  11.130   5.532
24850W        W25331   7.523  13.952   4.080
24851W        W25332   9.339  13.316   4.798
24852W        W25333   8.214  14.111   6.677
24853W        W25334   7.691  12.934   4.373
24854W        W25335   7.576  11.477   5.372
24855W        W25336   9.124  13.442   5.429
24856W        W25337   7.376  11.296   4.449
24857W        W25338  10.040  12.502   6.376
24858W        W25339   9.917  11.888   3.948
24859W        W25340  10.434  13.560   5.596
24860W        W25341   9.095  14.044   5.427
24861W        W25342   8.507  14.148   4.338
24862W        W25343   9.789  11.051   3.768
24863W        W25344   7.589  14.311   5.509
24864W        W25345   9.786  12.069   7.144
24865W        W25346   7.769  11.599   7.143
24866W        W25347   7.500  12.199   4.476
24867W        W25348   8.191  12.188   4.201
24868W        W25349   9.954  12.515   7.018
24869W        W25350   8.297  12.796   5.727
24870W        W25351   9.771  11.082   4.847
24871W        W25352   8.902  14.513   5.350
24872W        W25353  10.116  13.975   6.287
24873W        W25354   9.700  14.124   5.398
24874W        W25355   9.719  13.104   4.992
24875W        W25356   9.181  11.329   4.063
24876W        W25357  10.862  10.957   4.785
24877W        W25358   8.550  12.592   3.948
24878W        W25359  10.716  11.929   4.938
24879W        W25360  10.344  13.299   6.563
24880W        W25361   9.998  14.000   4.030
24881W        W25362   8.613  11.675   6.936
24882W        W25363   8.433  12.259   6.177
24883W        W25364  10.525  13.754   6.454
24884W        W25365   9.625  11.704   6.831
24885W        W25366   7.469  12.175   6.608
24886W        W25367   9.229  12.652   6.334
24887W        W25368   7.586  13.410   4.991
24888W        W25369   7.733  12.707   5.881
24889W        W25370  10.050  12.993   6.231
24890W        W25371   9.822  14.373   7.042
24891W        W25372   9.718  12.112   6.595
24892W        W25373   9.995  14.166   5.000
24893W        W25374   8.997  13.886   6.323
24894W        W25375   8.482  14.241   5.592
24895W        W25376  10.287  13.412   6.011
24896W        W25377   9.337  13.484   7.148
24897W        W25378   7.942  13.437   5.487
24898W        W25379  10.288  13.196   5.132
24899W        W25380   9.929  14.262   5.883
24900W        W25381   7.907  13.991   5.753
24901W        W25382   8.928  12.043   6.963
24902W        W25383   9.379  14.209   4.474
24903W        W25384   8.687  13.464   7.112
24904W        W25385   8.813  13.702   4.489
24905W        W25386   8.034  12.442   3.748
24906W        W25387   7.373  14.528  10.648
24907W        W25388   7.749  13.421  10.171
24908W        W25389  10.454  13.151   7.941
24909W        W25390  10.584  14.236   9.968
24910W        W25391   8.502  14.227   7.494
24911W        W25392   8.585  12.379   8.477
24912W        W25393   8.100  12.227   8.641
24913W        W25394   9.091  13.042   8.075
24914W        W25395   8.766  14.134  10.430
24915W        W25396   7.415  11.695  10.393
24916W        W25397   8.177  10.975  10.195
24917W        W25398   9.871  11.363   9.082
24918W        W25399   9.520  12.234   7.652
24919W        W25400  10.090  11.668  10.743
24920W        W25401   7.456  11.460   9.868
24921W        W25402   7.555  14.079  10.889
24922W        W25403   9.077  13.469   7.621
24923W        W25404   7.509  12.252   9.314
24924W        W25405   8.402  12.143  10.551
24925W        W25406  10.861  12.002   9.050
24926W        W25407  10.625  13.045   9.909
24927W        W25408   8.933  12.378   8.936
24928W        W25409   9.479  13.717   9.305
24929W        W25410   7.979  13.151   9.537
24930W        W25411   7.338  12.679   9.108
24931W        W25412   8.374  12.651  10.300
24932W        W25413  10.645  12.434  10.554
24933W        W25414   8.261  13.878   8.999
24934W        W25415   8.602  12.207   9.358
24935W        W25416   8.894  12.991   9.001
24936W        W25417   9.891  13.764  10.849
24937W        W25418   8.970  13.084  10.859
24938W        W25419   8.951  12.800  10.337
24939W        W25420   7.360  12.191  10.859
24940W        W25421  10.192  13.726  10.458
24941W        W25422   7.773  11.308   8.456
24942W        W25423   8.300  13.566   9.455
24943W        W25424  10.763  13.349   8.745
24944W        W25425  10.176  11.749   9.312
24945W        W25426  10.461  11.702   7.407
24946W        W25427  10.926  12.503   9.713
24947W        W25428   8.893  14.210   9.466
24948W        W25429  10.667  13.676   7.904
24949W        W25430   7.796  14.462   7.658
24950W        W25431   8.189  14.508   8.334
24951W        W25432   7.986  11.262   9.760
24952W        W25433  10.609  12.280  10.035
24953W        W25434  10.014  12.702   8.494
24954W        W25435   9.980  12.390   7.521
24955W        W25436   9.188  13.534   9.661
24956W        W25437   8.994  11.864   8.860
24957W        W25438   9.594  13.951   9.854
24958W        W25439  10.465  12.742   8.276
24959W        W25440   9.367  11.400   8.292
24960W        W25441   8.024  14.094   7.975
24961W        W25442   7.395  11.593   8.574
24962W        W25443  10.181  12.200   9.048
24963W        W25444   7.639  13.817   8.963
24964W        W25445   8.980  14.167   7.833
24965W        W25446  10.372  12.193   7.297
24966W        W25447   7.395  13.951   9.461
24967W        W25448   8.186  13.523   9.941
24968W        W25449   8.559  12.883   8.560
24969W        W25450   8.581  11.288   9.653
24970W        W25451  10.810  11.050   8.950
24971W        W25452   8.029  12.922   7.418
24972W        W25453   7.684  11.955   7.597
24973W        W25454   7.746  13.911   8.391
24974W        W25455   8.877  13.394   8.639
24975W        W25456  10.209  14.253  10.353
24976W        W25457   9.135  11.895   8.037
24977W        W25458  10.518  14.293   8.809
24978W        W25459  10.195  12.146  10.407
24979W        W25460  10.908  13.802   8.541
24980W        W25461   9.535  13.094  10.025
24981W        W25462   7.301  12.645   8.231
24982W        W25463   8.412  13.060   9.804
24983W        W25464   9.616  12.324   8.182
24984W        W25465   9.493  12.814   8.286
24985W        W25466   7.836  12.234   9.760
24986W        W25467   7.821  12.110  10.682
24987W        W25468   7.711  11.027   8.841
24988W        W25469   9.479  11.374   9.402
24989W        W25470   9.127  11.559  10.565
24990W        W25471   9.482  11.708   7.743
24991W        W25472  10.665  14.101  10.497
24992W        W25473   9.632  11.182  10.536
24993W        W25474  10.651  13.483  10.658
24994W        W25475  10.081  11.650  10.254
24995W        W25476   9.881  11.588   8.524
24996W        W25477  10.274  12.722  10.928
24997W        W25478   8.014  14.298   8.914
24998W        W25479   8.672  12.015   7.900
24999W        W25480   8.241  11.299  10.564
25000W        W25481  10.293  11.783   8.245
25001W        W25482  10.660  12.265   8.190
25002W        W25483   8.403  14.482  10.661
25003W        W25484   8.329  11.018   7.896
25004W        W25485  10.650  11.552   8.931
25005W        W25486  10.800  13.801   7.376
25006W        W25487   7.707  13.004   9.078
25007W        W25488   9.624  11.591   7.308
25008W        W25489  10.758  13.923   9.028
25009W        W25490  10.797  11.117   9.778
25010W        W25491   9.242  12.329  10.332
25011W        W25492   9.335  13.668   8.035
25012W        W25493   9.735  12.962  10.775
25013W        W25494   9.409  10.939   9.084
25014W        W25495   8.021  11.842   9.147
25015W        W25496   7.575  13.042   9.921
25016W        W25497   9.434  14.235   8.627
25017W        W25498  10.628  11.832   9.499
25018W        W25499   9.265  14.179  10.266
25019W        W25500  10.608  13.238   7.471
25020W        W25501   9.043  12.721   8.532
25021W        W25502  10.895  11.232  10.273
25022W        W25503   9.044  13.067   9.867
25023W        W25504   9.261  11.953   9.312
25024W        W25505  10.113  12.251   8.150
25025W        W25506  10.400  11.984   7.792
25026W        W25507  10.209  14.024   8.181
25027W        W25508  10.043  13.627   8.977
25028W        W25509   9.939  12.706   7.955
25029W        W25510   9.372  12.916   8.941
25030W        W25511  10.253  12.704   9.008
25031W        W25512   7.628  11.719   9.432
25032W        W25513  10.406  12.771  10.259
25033W        W25514  10.757  14.389   9.405
25034W        W25515   8.687  13.833   8.807
25035W        W25516   9.694  14.366  10.131
25036W        W25517   9.688  11.696   9.895
25037W        W25518   8.895  14.404   9.956
25038W        W25519  10.383  12.677   9.723
25039W        W25520   7.366  11.998   9.761
25040W        W25521  10.226  11.793   8.779
25041W        W25522  10.637  11.944  10.556
25042W        W25523   9.522  13.643   8.774
25043W        W25524   8.778  14.234   8.387
25044W        W25525   7.893  11.414   7.645
25045W        W25526   8.997  11.068   9.455
25046W        W25527   8.025  14.188   7.303
25047W        W25528   8.399  12.654   8.054
25048W        W25529   8.883  11.641   8.357
25049W        W25530  10.239  11.238   8.785
25050W        W25531   9.959  14.520   9.113
25051W        W25532   9.371  14.168   9.453
25052W        W25533   8.767  13.205   9.414
25053W        W25534  10.537  13.928   9.540
25054W        W25535   8.231  11.431   8.309
25055W        W25536   8.753  13.728   9.269
25056W        W25537   8.236  11.659   7.334
25057W        W25538   9.037  12.268   9.728
25058W        W25539   9.885  11.134   9.598
25059W        W25540   7.305  12.977   9.483
25060W        W25541   9.009  12.795   7.641
25061W        W25542   8.277  11.110   7.411
25062W        W25543   9.015  12.191   8.462
25063W        W25544   9.985  11.167  10.161
25064W        W25545   8.573  13.179  10.270
25065W        W25546   9.377  12.961  10.487
25066W        W25547   9.994  12.991  10.380
25067W        W25548   9.278  11.131  10.885
25068W        W25549   8.500  11.747   9.278
25069W        W25550   7.926  11.703   8.676
25070W        W25551   7.712  14.415   8.352
25071W        W25552   9.044  13.745  10.477
25072W        W25553   8.079  13.230   7.836
25073W        W25554   9.759  12.615   9.057
25074W        W25555  10.039  12.414   9.456
25075W        W25556   9.244  13.088   9.390
25076W        W25557   9.714  13.462   7.522
25077W        W25558   9.386  11.483   8.850
25078W        W25559  10.865  11.761   8.118
25079W        W25560   7.359  14.350  10.149
25080W        W25561   7.776  13.576   9.681
25081W        W25562   7.343  14.422   7.913
25082W        W25563   9.242  11.692   9.719
25083W        W25564   8.605  13.715   7.568
25084W        W25565  10.510  14.097   7.754
25085W        W25566   9.485  12.750   7.768
25086W        W25567   8.328  11.941   8.285
25087W        W25568   9.160  11.851   7.337
25088W        W25569   9.744  13.416  10.515
25089W        W25570  10.097  11.322   8.132
25090W        W25571   7.427  11.170   7.580
25091W        W25572   8.713  13.489   9.870
25092W        W25573   8.512  13.405   8.962
25093W        W25574   8.254  13.357   7.360
25094W        W25575   7.495  13.598   8.128
25095W        W25576   7.999  12.668  10.570
25096W        W25577   8.703  11.228  10.756
25097W        W25578   9.412  11.370  10.112
25098W        W25579   8.607  11.138   8.393
25099W        W25580   9.666  11.215   7.898
25100W        W25581   7.611  11.147   9.475
25101W        W25582   7.659  12.110   8.845
25102W        W25583  10.348  11.218   9.251
25103W        W25584   7.770  11.716   8.065
25104W        W25585  10.341  11.404   9.681
25105W        W25586  10.737  12.607   7.366
25106W        W25587   8.029  11.365   9.185
25107W        W25588   9.143  11.937  10.125
25108W        W25589   7.291  11.627   7.603
25109W        W25590   8.077  13.016  10.164
25110W        W25591   9.435  12.414   9.343
25111W        W25592   9.302  14.493   7.639
25112W        W25593   7.448  13.000   7.336
25113W        W25594   8.183  13.411  10.462
25114W        W25595   7.704  12.578  10.093
25115W        W25596   8.695  12.683   9.887
25116W        W25597  10.463  11.042  10.149
25117W        W25598  10.861  12.652  10.140
25118W        W25599  10.849  12.852   7.826
25119W        W25600   9.712  13.184   7.925
25120W        W25601  10.186  14.484   7.620
25121W        W25602   9.363  12.474  10.762
25122W        W25603   7.693  13.441  10.802
25123W        W25604  10.899  11.363  10.754
25124W        W25605  10.617  12.291   9.375
25125W        W25606   8.925  14.421  10.852
25126W        W25607   8.780  11.050   7.579
25127W        W25608  10.319  13.649   7.522
25128W        W25609   8.088  11.742  10.408
25129W        W25610   8.522  13.736  10.270
25130W        W25611  10.648  11.727  10.068
25131W        W25612   9.859  14.386   8.036
25132W        W25613  10.098  13.005   9.403
25133W        W25614   8.348  11.421  10.070
25134W        W25615   8.817  12.490  10.827
25135W        W25616   8.320  13.669   8.021
25136W        W25617  10.075  13.167   8.285
25137W        W25618   7.843  11.793  10.009
25138W        W25619   9.172  13.855   8.473
25139W        W25620  10.922  12.415   8.654
25140W        W25621   9.144  11.048  10.373
25141W        W25622   9.924  13.753   9.452
25142W        W25623  10.227  14.097   9.160
25143W        W25624   9.446  13.899   7.588
25144W        W25625   7.456  13.791  10.430
25145W        W25626   8.199  11.783   9.668
25146W        W25627   8.169  11.131   8.778
25147W        W25628   9.790  11.973   9.470
25148W        W25629  10.586  13.086   9.169
25149W        W25630   7.913  13.844  10.592
25150W        W25631  10.300  14.526   8.389
25151W        W25632   8.399  11.546   8.834
25152W        W25633   8.168  13.039   8.924
25153W        W25634   8.481  14.450   9.674
25154W        W25635  10.548  14.546  10.706
25155W        W25636   9.707  12.734   9.639
25156W        W25637   7.556  12.532   7.554
25157W        W25638  10.690  14.190   8.251
25158W        W25639  10.527  11.514   7.870
25159W        W25640   8.666  11.033  10.273
25160W        W25641  10.372  13.835   8.731
25161W        W25642  10.401  12.391   8.636
25162W        W25643   8.518  12.064   8.852
25163W        W25644   8.763  12.326  10.176
25164W        W25645   9.874  13.479  10.039
25165W        W25646   8.524  11.933  10.151
25166W        W25647   8.503  14.399   8.767
25167W        W25648   7.820  14.358  10.401
25168W        W25649   7.932  13.719   7.531
25169W        W25650  10.449  13.477   8.341
25170W        W25651   8.053  12.269  10.227
25171W        W25652  10.826  12.199   7.708
25172W        W25653   8.571  13.256   8.179
25173W        W25654   9.670  12.638  10.260
25174W        W25655   9.561  12.266   9.804
25175W        W25656   8.121  12.638   9.833
25176W        W25657  10.331  14.526   9.662
25177W        W25658  10.122  11.160  10.656
25178W        W25659   7.786  11.310  10.243
25179W        W25660   8.125  12.333   9.296
25180W        W25661   8.494  12.147   7.418
25181W        W25662   7.297  13.906   9.963
25182W        W25663   8.882  12.615   9.406
25183W        W25664   8.705  11.640   7.511
25184W        W25665   7.840  12.456   8.292
25185W        W25666   7.611  14.308   9.729
25186W        W25667  10.406  12.534   7.837
25187W        W25668  10.501  11.450  10.523
25188W        W25669   9.937  13.659   8.486
25189W        W25670   7.535  12.583  10.663
25190W        W25671  10.501  11.047   7.959
25191W        W25672  10.021  13.522   7.970
25192W        W25673   8.923  12.580   8.055
25193W        W25674  10.110  11.384   7.578
25194W        W25675  10.175  11.991   9.764
25195W        W25676   7.884  12.584   8.971
25196W        W25677   9.941  12.143   8.585
25197W        W25678   8.964  11.522   9.281
25198W        W25679  10.926  13.433   9.792
25199W        W25680  10.844  11.420   9.353
25200W        W25681   7.383  14.250   8.729
25201W        W25682   7.892  13.437   8.265
25202W        W25683   7.807  11.054  10.818
25203W        W25684   8.926  13.907  10.920
25204W        W25685  10.681  12.875   8.710
25205W        W25686   9.330  14.573   9.802
25206W        W25687  10.187  13.295  10.839
25207W        W25688   9.002  11.005   8.119
25208W        W25689   9.715  11.874   8.978
25209W        W25690   7.401  13.461   9.310
25210W        W25691   8.654  11.423   7.951
25211W        W25692   8.458  12.907  10.800
25212W        W25693   9.452  11.888   8.514
25213W        W25694   9.657  13.298   9.636
25214W        W25695   7.811  13.903  10.071
25215W        W25696   8.402  13.886  10.794
25216W        W25697   8.253  11.683   7.808
25217W        W25698   9.770  11.825   8.133
25218W        W25699   9.728  13.933  10.370
25219W        W25700   8.413  12.525   8.969
25220W        W25701   8.068  14.223   9.834
25221W        W25702  10.813  14.340   7.435
25222W        W25703   7.676  13.012  10.431
25223W        W25704   9.671  13.274   9.119
25224W        W25705   8.107  12.923   8.361
25225W        W25706   8.478  13.930   9.756
25226W        W25707   8.856  11.349   8.797
25227W        W25708   7.467  13.333   7.727
25228W        W25709   8.986  12.284   7.597
25229W        W25710   7.632  12.833   8.616
25230W        W25711   8.922  11.475  10.080
25231W        W25712  10.594  11.184   7.507
25232W        W25713  10.687  12.930  10.606
25233W        W25714   9.341  14.187  10.758
25234W        W25715  10.899  13.281  10.280
25235W        W25716   8.046  14.535   9.369
25236W        W25717  10.905  13.157   8.243
25237W        W25718   9.435  12.424   8.756
25238W        W25719   9.202  11.036   8.646
25239W        W25720   8.261  14.020   8.483
25240W        W25721   8.760  11.761   9.708
25241W        W25722   8.460  11.130   9.177
25242W        W25723   7.523  13.952   7.725
25243W        W25724   9.339  13.316   8.443
25244W        W25725   8.214  14.111  10.322
25245W        W25726   7.691  12.934   8.018
25246W        W25727   7.576  11.477   9.017
25247W        W25728   9.124  13.442   9.074
25248W        W25729   7.376  11.296   8.094
25249W        W25730  10.040  12.502  10.021
25250W        W25731   9.917  11.888   7.593
25251W        W25732  10.434  13.560   9.241
25252W        W25733   9.095  14.044   9.072
25253W        W25734   8.507  14.148   7.983
25254W        W25735   9.789  11.051   7.413
25255W        W25736   7.589  14.311   9.154
25256W        W25737   9.786  12.069  10.789
25257W        W25738   7.769  11.599  10.788
25258W        W25739   7.500  12.199   8.121
25259W        W25740   8.191  12.188   7.846
25260W        W25741   9.954  12.515  10.663
25261W        W25742   8.297  12.796   9.372
25262W        W25743   9.771  11.082   8.492
25263W        W25744   8.902  14.513   8.995
25264W        W25745  10.116  13.975   9.932
25265W        W25746   9.700  14.124   9.043
25266W        W25747   9.719  13.104   8.637
25267W        W25748   9.181  11.329   7.708
25268W        W25749  10.862  10.957   8.430
25269W        W25750   8.550  12.592   7.593
25270W        W25751  10.716  11.929   8.583
25271W        W25752   9.408  13.099   7.460
25272W        W25753  10.344  13.299  10.208
25273W        W25754   9.998  14.000   7.675
25274W        W25755   8.433  12.259   9.822
25275W        W25756  10.525  13.754  10.099
25276W        W25757   9.625  11.704  10.476
25277W        W25758   7.469  12.175  10.253
25278W        W25759   9.229  12.652   9.979
25279W        W25760   7.586  13.410   8.636
25280W        W25761   7.733  12.707   9.526
25281W        W25762  10.050  12.993   9.876
25282W        W25763   9.822  14.373  10.687
25283W        W25764   9.718  12.112  10.240
25284W        W25765   9.995  14.166   8.645
25285W        W25766   8.997  13.886   9.968
25286W        W25767   8.482  14.241   9.237
25287W        W25768  10.287  13.412   9.656
25288W        W25769   9.337  13.484  10.793
25289W        W25770   7.942  13.437   9.132
25290W        W25771  10.288  13.196   8.777
25291W        W25772   9.929  14.262   9.528
25292W        W25773   7.907  13.991   9.398
25293W        W25774   8.928  12.043  10.608
25294W        W25775   8.687  13.464  10.757
25295W        W25776   8.813  13.702   8.134
25296W        W25777   8.034  12.442   7.393
25297W        W25778   7.373  14.528  14.292
25298W        W25779   7.749  13.421  13.815
25299W        W25780  10.454  13.151  11.585
25300W        W25781   8.502  14.227  11.138
25301W        W25782   8.585  12.379  12.121
25302W        W25783   8.100  12.227  12.285
25303W        W25784   9.091  13.042  11.719
25304W        W25785   8.766  14.134  14.074
25305W        W25786   7.415  11.695  14.037
25306W        W25787   8.177  10.975  13.839
25307W        W25788   9.871  11.363  12.726
25308W        W25789   9.520  12.234  11.296
25309W        W25790  10.090  11.668  14.387
25310W        W25791   7.456  11.460  13.512
25311W        W25792   7.555  14.079  14.533
25312W        W25793   9.077  13.469  11.265
25313W        W25794   7.509  12.252  12.958
25314W        W25795   8.402  12.143  14.195
25315W        W25796  10.861  12.002  12.694
25316W        W25797  10.625  13.045  13.553
25317W        W25798   8.933  12.378  12.580
25318W        W25799   9.479  13.717  12.949
25319W        W25800   7.979  13.151  13.181
25320W        W25801   7.338  12.679  12.752
25321W        W25802   8.374  12.651  13.944
25322W        W25803  10.645  12.434  14.198
25323W        W25804   8.261  13.878  12.643
25324W        W25805   9.382  13.567  13.777
25325W        W25806   8.602  12.207  13.002
25326W        W25807   8.894  12.991  12.645
25327W        W25808   9.891  13.764  14.493
25328W        W25809   8.970  13.084  14.503
25329W        W25810   8.951  12.800  13.981
25330W        W25811   7.360  12.191  14.503
25331W        W25812  10.192  13.726  14.102
25332W        W25813   7.773  11.308  12.100
25333W        W25814   8.300  13.566  13.099
25334W        W25815  10.763  13.349  12.389
25335W        W25816  10.176  11.749  12.956
25336W        W25817  10.461  11.702  11.051
25337W        W25818  10.926  12.503  13.357
25338W        W25819   8.893  14.210  13.110
25339W        W25820  10.667  13.676  11.548
25340W        W25821   7.796  14.462  11.302
25341W        W25822   8.189  14.508  11.978
25342W        W25823   7.986  11.262  13.404
25343W        W25824  10.609  12.280  13.679
25344W        W25825  10.014  12.702  12.138
25345W        W25826   9.980  12.390  11.165
25346W        W25827   9.188  13.534  13.305
25347W        W25828   8.994  11.864  12.504
25348W        W25829   9.594  13.951  13.498
25349W        W25830  10.465  12.742  11.920
25350W        W25831   9.367  11.400  11.936
25351W        W25832   8.024  14.094  11.619
25352W        W25833   7.395  11.593  12.218
25353W        W25834  10.181  12.200  12.692
25354W        W25835   7.639  13.817  12.607
25355W        W25836   8.980  14.167  11.477
25356W        W25837  10.372  12.193  10.941
25357W        W25838   7.395  13.951  13.105
25358W        W25839   8.186  13.523  13.585
25359W        W25840   8.559  12.883  12.204
25360W        W25841   8.581  11.288  13.297
25361W        W25842  10.810  11.050  12.594
25362W        W25843   8.029  12.922  11.062
25363W        W25844   7.684  11.955  11.241
25364W        W25845   7.746  13.911  12.035
25365W        W25846   8.877  13.394  12.283
25366W        W25847  10.209  14.253  13.997
25367W        W25848   9.135  11.895  11.681
25368W        W25849  10.518  14.293  12.453
25369W        W25850  10.195  12.146  14.051
25370W        W25851  10.908  13.802  12.185
25371W        W25852   9.535  13.094  13.669
25372W        W25853   7.301  12.645  11.875
25373W        W25854   8.412  13.060  13.448
25374W        W25855   9.616  12.324  11.826
25375W        W25856   9.493  12.814  11.930
25376W        W25857   7.836  12.234  13.404
25377W        W25858   7.821  12.110  14.326
25378W        W25859   7.711  11.027  12.485
25379W        W25860   9.479  11.374  13.046
25380W        W25861   9.127  11.559  14.209
25381W        W25862   9.482  11.708  11.387
25382W        W25863  10.665  14.101  14.141
25383W        W25864   9.632  11.182  14.180
25384W        W25865  10.651  13.483  14.302
25385W        W25866  10.081  11.650  13.898
25386W        W25867   9.881  11.588  12.168
25387W        W25868  10.274  12.722  14.572
25388W        W25869   8.014  14.298  12.558
25389W        W25870   8.672  12.015  11.544
25390W        W25871   8.241  11.299  14.208
25391W        W25872  10.293  11.783  11.889
25392W        W25873  10.660  12.265  11.834
25393W        W25874   8.403  14.482  14.305
25394W        W25875   8.329  11.018  11.540
25395W        W25876  10.650  11.552  12.575
25396W        W25877  10.800  13.801  11.020
25397W        W25878   7.707  13.004  12.722
25398W        W25879   9.624  11.591  10.952
25399W        W25880  10.758  13.923  12.672
25400W        W25881  10.797  11.117  13.422
25401W        W25882   9.242  12.329  13.976
25402W        W25883   9.335  13.668  11.679
25403W        W25884   9.735  12.962  14.419
25404W        W25885   9.409  10.939  12.728
25405W        W25886   8.021  11.842  12.791
25406W        W25887   7.575  13.042  13.565
25407W        W25888   9.434  14.235  12.271
25408W        W25889  10.628  11.832  13.143
25409W        W25890   9.265  14.179  13.910
25410W        W25891  10.608  13.238  11.115
25411W        W25892   9.043  12.721  12.176
25412W        W25893  10.895  11.232  13.917
25413W        W25894   9.044  13.067  13.511
25414W        W25895   9.261  11.953  12.956
25415W        W25896  10.113  12.251  11.794
25416W        W25897  10.400  11.984  11.436
25417W        W25898  10.209  14.024  11.825
25418W        W25899  10.043  13.627  12.621
25419W        W25900   9.939  12.706  11.599
25420W        W25901   9.372  12.916  12.585
25421W        W25902  10.253  12.704  12.652
25422W        W25903   7.628  11.719  13.076
25423W        W25904  10.406  12.771  13.903
25424W        W25905  10.757  14.389  13.049
25425W        W25906   8.687  13.833  12.451
25426W        W25907   9.694  14.366  13.775
25427W        W25908   9.688  11.696  13.539
25428W        W25909   8.895  14.404  13.600
25429W        W25910  10.592  11.358  12.066
25430W        W25911  10.383  12.677  13.367
25431W        W25912   7.366  11.998  13.405
25432W        W25913  10.226  11.793  12.423
25433W        W25914  10.637  11.944  14.200
25434W        W25915   9.522  13.643  12.418
25435W        W25916   8.778  14.234  12.031
25436W        W25917   7.893  11.414  11.289
25437W        W25918   8.997  11.068  13.099
25438W        W25919   8.025  14.188  10.947
25439W        W25920   8.399  12.654  11.698
25440W        W25921   9.053  13.283  14.011
25441W        W25922   8.883  11.641  12.001
25442W        W25923  10.239  11.238  12.429
25443W        W25924   9.959  14.520  12.757
25444W        W25925   9.371  14.168  13.097
25445W        W25926   8.767  13.205  13.058
25446W        W25927  10.537  13.928  13.184
25447W        W25928   8.231  11.431  11.953
25448W        W25929   8.753  13.728  12.913
25449W        W25930   8.236  11.659  10.978
25450W        W25931   9.037  12.268  13.372
25451W        W25932   9.885  11.134  13.242
25452W        W25933   7.305  12.977  13.127
25453W        W25934   9.009  12.795  11.285
25454W        W25935   8.277  11.110  11.055
25455W        W25936   9.015  12.191  12.106
25456W        W25937   9.985  11.167  13.805
25457W        W25938   8.573  13.179  13.914
25458W        W25939   9.377  12.961  14.131
25459W        W25940   9.994  12.991  14.024
25460W        W25941   9.278  11.131  14.529
25461W        W25942   8.500  11.747  12.922
25462W        W25943   7.926  11.703  12.320
25463W        W25944   7.712  14.415  11.996
25464W        W25945   9.044  13.745  14.121
25465W        W25946   8.079  13.230  11.480
25466W        W25947   9.759  12.615  12.701
25467W        W25948  10.039  12.414  13.100
25468W        W25949   9.244  13.088  13.034
25469W        W25950   9.714  13.462  11.166
25470W        W25951   9.386  11.483  12.494
25471W        W25952  10.865  11.761  11.762
25472W        W25953   7.359  14.350  13.793
25473W        W25954   7.776  13.576  13.325
25474W        W25955   7.343  14.422  11.557
25475W        W25956   9.242  11.692  13.363
25476W        W25957   8.605  13.715  11.212
25477W        W25958  10.510  14.097  11.398
25478W        W25959   9.485  12.750  11.412
25479W        W25960   8.328  11.941  11.929
25480W        W25961   9.160  11.851  10.981
25481W        W25962   9.744  13.416  14.159
25482W        W25963  10.097  11.322  11.776
25483W        W25964   7.427  11.170  11.224
25484W        W25965   8.713  13.489  13.514
25485W        W25966   8.512  13.405  12.606
25486W        W25967   8.254  13.357  11.004
25487W        W25968   7.495  13.598  11.772
25488W        W25969   7.999  12.668  14.214
25489W        W25970   8.703  11.228  14.400
25490W        W25971   9.412  11.370  13.756
25491W        W25972   8.607  11.138  12.037
25492W        W25973   9.666  11.215  11.542
25493W        W25974   7.611  11.147  13.119
25494W        W25975   7.659  12.110  12.489
25495W        W25976  10.348  11.218  12.895
25496W        W25977   7.770  11.716  11.709
25497W        W25978  10.341  11.404  13.325
25498W        W25979  10.737  12.607  11.010
25499W        W25980   8.029  11.365  12.829
25500W        W25981   9.143  11.937  13.769
25501W        W25982   7.291  11.627  11.247
25502W        W25983   8.077  13.016  13.808
25503W        W25984   9.435  12.414  12.987
25504W        W25985   7.448  13.000  10.980
25505W        W25986   8.183  13.411  14.106
25506W        W25987   7.704  12.578  13.737
25507W        W25988   8.695  12.683  13.531
25508W        W25989  10.463  11.042  13.793
25509W        W25990  10.861  12.652  13.784
25510W        W25991  10.849  12.852  11.470
25511W        W25992   9.712  13.184  11.569
25512W        W25993  10.186  14.484  11.264
25513W        W25994   9.363  12.474  14.406
25514W        W25995   7.693  13.441  14.446
25515W        W25996  10.899  11.363  14.398
25516W        W25997  10.617  12.291  13.019
25517W        W25998   8.925  14.421  14.496
25518W        W25999   8.780  11.050  11.223
25519W        W26000  10.319  13.649  11.166
25520W        W26001   8.088  11.742  14.052
25521W        W26002   8.522  13.736  13.914
25522W        W26003  10.648  11.727  13.712
25523W        W26004   9.859  14.386  11.680
25524W        W26005  10.098  13.005  13.047
25525W        W26006   8.348  11.421  13.714
25526W        W26007   8.817  12.490  14.471
25527W        W26008   8.320  13.669  11.665
25528W        W26009  10.075  13.167  11.929
25529W        W26010   7.843  11.793  13.653
25530W        W26011   9.172  13.855  12.117
25531W        W26012  10.922  12.415  12.298
25532W        W26013   9.144  11.048  14.017
25533W        W26014   9.924  13.753  13.096
25534W        W26015  10.227  14.097  12.804
25535W        W26016   9.446  13.899  11.232
25536W        W26017   7.456  13.791  14.074
25537W        W26018   8.199  11.783  13.312
25538W        W26019   8.169  11.131  12.422
25539W        W26020   9.790  11.973  13.114
25540W        W26021   8.588  13.144  11.314
25541W        W26022  10.586  13.086  12.813
25542W        W26023  10.300  14.526  12.033
25543W        W26024   8.399  11.546  12.478
25544W        W26025   8.168  13.039  12.568
25545W        W26026   8.481  14.450  13.318
25546W        W26027  10.548  14.546  14.350
25547W        W26028   9.707  12.734  13.283
25548W        W26029   7.556  12.532  11.198
25549W        W26030  10.690  14.190  11.895
25550W        W26031  10.527  11.514  11.514
25551W        W26032   8.666  11.033  13.917
25552W        W26033  10.372  13.835  12.375
25553W        W26034  10.401  12.391  12.280
25554W        W26035   8.518  12.064  12.496
25555W        W26036   8.763  12.326  13.820
25556W        W26037   9.874  13.479  13.683
25557W        W26038   8.524  11.933  13.795
25558W        W26039   8.503  14.399  12.411
25559W        W26040   7.820  14.358  14.045
25560W        W26041   7.932  13.719  11.175
25561W        W26042  10.449  13.477  11.985
25562W        W26043   8.053  12.269  13.871
25563W        W26044  10.826  12.199  11.352
25564W        W26045   8.571  13.256  11.823
25565W        W26046   9.670  12.638  13.904
25566W        W26047   9.561  12.266  13.448
25567W        W26048   8.121  12.638  13.477
25568W        W26049  10.331  14.526  13.306
25569W        W26050  10.122  11.160  14.300
25570W        W26051   7.786  11.310  13.887
25571W        W26052   8.125  12.333  12.940
25572W        W26053   8.494  12.147  11.062
25573W        W26054   7.297  13.906  13.607
25574W        W26055   8.882  12.615  13.050
25575W        W26056   8.705  11.640  11.155
25576W        W26057   7.840  12.456  11.936
25577W        W26058   7.611  14.308  13.373
25578W        W26059  10.406  12.534  11.481
25579W        W26060  10.501  11.450  14.167
25580W        W26061   9.937  13.659  12.130
25581W        W26062   7.535  12.583  14.307
25582W        W26063  10.501  11.047  11.603
25583W        W26064  10.021  13.522  11.614
25584W        W26065   8.923  12.580  11.699
25585W        W26066  10.110  11.384  11.222
25586W        W26067  10.175  11.991  13.408
25587W        W26068   7.884  12.584  12.615
25588W        W26069   8.178  13.523  12.264
25589W        W26070   9.941  12.143  12.229
25590W        W26071   8.964  11.522  12.925
25591W        W26072  10.926  13.433  13.436
25592W        W26073  10.844  11.420  12.997
25593W        W26074   7.383  14.250  12.373
25594W        W26075   7.892  13.437  11.909
25595W        W26076   7.807  11.054  14.462
25596W        W26077   8.926  13.907  14.564
25597W        W26078  10.681  12.875  12.354
25598W        W26079  10.035  13.052  11.234
25599W        W26080   9.330  14.573  13.446
25600W        W26081  10.187  13.295  14.483
25601W        W26082   9.002  11.005  11.763
25602W        W26083   9.715  11.874  12.622
25603W        W26084   7.401  13.461  12.954
25604W        W26085   8.654  11.423  11.595
25605W        W26086   8.458  12.907  14.444
25606W        W26087   9.452  11.888  12.158
25607W        W26088   9.657  13.298  13.280
25608W        W26089   7.811  13.903  13.715
25609W        W26090   8.402  13.886  14.438
25610W        W26091   8.253  11.683  11.452
25611W        W26092   9.770  11.825  11.777
25612W        W26093   9.728  13.933  14.014
25613W        W26094   8.413  12.525  12.613
25614W        W26095   8.068  14.223  13.478
25615W        W26096  10.813  14.340  11.079
25616W        W26097   7.676  13.012  14.075
25617W        W26098   9.671  13.274  12.763
25618W        W26099   8.107  12.923  12.005
25619W        W26100   8.478  13.930  13.400
25620W        W26101   8.856  11.349  12.441
25621W        W26102   7.467  13.333  11.371
25622W        W26103   8.986  12.284  11.241
25623W        W26104   7.632  12.833  12.260
25624W        W26105   8.922  11.475  13.724
25625W        W26106  10.594  11.184  11.151
25626W        W26107  10.687  12.930  14.250
25627W        W26108   9.341  14.187  14.402
25628W        W26109  10.899  13.281  13.924
25629W        W26110  10.307  14.079  14.535
25630W        W26111   8.046  14.535  13.013
25631W        W26112  10.905  13.157  11.887
25632W        W26113   9.435  12.424  12.400
25633W        W26114   9.202  11.036  12.290
25634W        W26115   8.261  14.020  12.127
25635W        W26116   8.760  11.761  13.352
25636W        W26117   8.460  11.130  12.821
25637W        W26118   7.523  13.952  11.369
25638W        W26119   9.339  13.316  12.087
25639W        W26120   8.214  14.111  13.966
25640W        W26121   7.691  12.934  11.662
25641W        W26122   7.576  11.477  12.661
25642W        W26123   9.124  13.442  12.718
25643W        W26124   7.376  11.296  11.738
25644W        W26125  10.040  12.502  13.665
25645W        W26126   9.917  11.888  11.237
25646W        W26127  10.434  13.560  12.885
25647W        W26128   9.095  14.044  12.716
25648W        W26129   8.507  14.148  11.627
25649W        W26130   9.789  11.051  11.057
25650W        W26131   7.589  14.311  12.798
25651W        W26132   9.786  12.069  14.433
25652W        W26133   7.769  11.599  14.432
25653W        W26134   7.500  12.199  11.765
25654W        W26135   8.191  12.188  11.490
25655W        W26136   9.954  12.515  14.307
25656W        W26137   8.297  12.796  13.016
25657W        W26138   9.771  11.082  12.136
25658W        W26139   8.902  14.513  12.639
25659W        W26140  10.116  13.975  13.576
25660W        W26141   9.700  14.124  12.687
25661W        W26142   9.719  13.104  12.281
25662W        W26143   9.181  11.329  11.352
25663W        W26144  10.862  10.957  12.074
25664W        W26145   8.550  12.592  11.237
25665W        W26146  10.716  11.929  12.227
25666W        W26147   9.408  13.099  11.104
25667W        W26148  10.344  13.299  13.852
25668W        W26149   9.998  14.000  11.319
25669W        W26150   8.613  11.675  14.225
25670W        W26151   8.433  12.259  13.466
25671W        W26152  10.525  13.754  13.743
25672W        W26153   9.625  11.704  14.120
25673W        W26154   7.469  12.175  13.897
25674W        W26155   9.229  12.652  13.623
25675W        W26156   7.586  13.410  12.280
25676W        W26157   7.733  12.707  13.170
25677W        W26158  10.050  12.993  13.520
25678W        W26159   9.822  14.373  14.331
25679W        W26160   9.995  14.166  12.289
25680W        W26161   8.997  13.886  13.612
25681W        W26162   8.482  14.241  12.881
25682W        W26163  10.287  13.412  13.300
25683W        W26164   9.337  13.484  14.437
25684W        W26165   7.942  13.437  12.776
25685W        W26166  10.288  13.196  12.421
25686W        W26167   9.929  14.262  13.172
25687W        W26168   7.907  13.991  13.042
25688W        W26169   8.928  12.043  14.252
25689W        W26170   9.379  14.209  11.763
25690W        W26171   8.687  13.464  14.401
25691W        W26172   8.813  13.702  11.778
25692W        W26173   8.034  12.442  11.037
25693W        W26174   7.749  13.421  17.459
25694W        W26175  10.454  13.151  15.229
25695W        W26176  10.584  14.236  17.256
25696W        W26177   8.502  14.227  14.782
25697W        W26178   8.585  12.379  15.765
25698W        W26179   8.100  12.227  15.929
25699W        W26180   9.091  13.042  15.363
25700W        W26181   7.415  11.695  17.681
25701W        W26182   8.177  10.975  17.483
25702W        W26183   9.871  11.363  16.370
25703W        W26184   9.520  12.234  14.940
25704W        W26185   7.456  11.460  17.156
25705W        W26186   9.077  13.469  14.909
25706W        W26187   7.509  12.252  16.602
25707W        W26188  10.861  12.002  16.338
25708W        W26189  10.625  13.045  17.197
25709W        W26190   8.933  12.378  16.224
25710W        W26191   9.479  13.717  16.593
25711W        W26192   7.979  13.151  16.825
25712W        W26193   7.338  12.679  16.396
25713W        W26194   8.374  12.651  17.588
25714W        W26195   8.261  13.878  16.287
25715W        W26196   9.382  13.567  17.421
25716W        W26197   8.602  12.207  16.646
25717W        W26198   8.894  12.991  16.289
25718W        W26199   8.951  12.800  17.625
25719W        W26200  10.192  13.726  17.746
25720W        W26201   7.773  11.308  15.744
25721W        W26202   8.300  13.566  16.743
25722W        W26203  10.763  13.349  16.033
25723W        W26204  10.176  11.749  16.600
25724W        W26205  10.461  11.702  14.695
25725W        W26206  10.926  12.503  17.001
25726W        W26207   8.893  14.210  16.754
25727W        W26208  10.667  13.676  15.192
25728W        W26209   7.796  14.462  14.946
25729W        W26210   8.189  14.508  15.622
25730W        W26211   7.986  11.262  17.048
25731W        W26212  10.609  12.280  17.323
25732W        W26213  10.014  12.702  15.782
25733W        W26214   9.980  12.390  14.809
25734W        W26215   9.188  13.534  16.949
25735W        W26216   9.594  13.951  17.142
25736W        W26217  10.465  12.742  15.564
25737W        W26218   9.367  11.400  15.580
25738W        W26219   8.024  14.094  15.263
25739W        W26220   7.395  11.593  15.862
25740W        W26221  10.181  12.200  16.336
25741W        W26222   7.639  13.817  16.251
25742W        W26223   8.980  14.167  15.121
25743W        W26224  10.372  12.193  14.585
25744W        W26225   7.395  13.951  16.749
25745W        W26226   8.186  13.523  17.229
25746W        W26227   8.559  12.883  15.848
25747W        W26228   8.581  11.288  16.941
25748W        W26229  10.810  11.050  16.238
25749W        W26230   8.029  12.922  14.706
25750W        W26231   7.746  13.911  15.679
25751W        W26232   8.877  13.394  15.927
25752W        W26233  10.209  14.253  17.641
25753W        W26234   9.135  11.895  15.325
25754W        W26235  10.518  14.293  16.097
25755W        W26236  10.908  13.802  15.829
25756W        W26237   9.535  13.094  17.313
25757W        W26238   7.301  12.645  15.519
25758W        W26239   8.412  13.060  17.092
25759W        W26240   9.616  12.324  15.470
25760W        W26241   9.493  12.814  15.574
25761W        W26242   7.836  12.234  17.048
25762W        W26243   7.711  11.027  16.129
25763W        W26244   9.479  11.374  16.690
25764W        W26245   9.482  11.708  15.031
25765W        W26246  10.665  14.101  17.785
25766W        W26247   9.632  11.182  17.824
25767W        W26248  10.081  11.650  17.542
25768W        W26249   9.881  11.588  15.812
25769W        W26250   8.014  14.298  16.202
25770W        W26251   8.672  12.015  15.188
25771W        W26252  10.293  11.783  15.533
25772W        W26253  10.660  12.265  15.478
25773W        W26254   8.329  11.018  15.184
25774W        W26255  10.650  11.552  16.219
25775W        W26256  10.800  13.801  14.664
25776W        W26257   7.707  13.004  16.366
25777W        W26258   9.624  11.591  14.596
25778W        W26259  10.758  13.923  16.316
25779W        W26260  10.797  11.117  17.066
25780W        W26261   9.242  12.329  17.620
25781W        W26262   9.335  13.668  15.323
25782W        W26263   9.409  10.939  16.372
25783W        W26264   8.021  11.842  16.435
25784W        W26265   7.575  13.042  17.209
25785W        W26266   9.434  14.235  15.915
25786W        W26267  10.628  11.832  16.787
25787W        W26268   9.265  14.179  17.554
25788W        W26269  10.608  13.238  14.759
25789W        W26270   9.043  12.721  15.820
25790W        W26271  10.895  11.232  17.561
25791W        W26272   9.044  13.067  17.155
25792W        W26273   9.261  11.953  16.600
25793W        W26274  10.113  12.251  15.438
25794W        W26275  10.400  11.984  15.080
25795W        W26276  10.209  14.024  15.469
25796W        W26277  10.043  13.627  16.265
25797W        W26278   9.939  12.706  15.243
25798W        W26279   9.372  12.916  16.229
25799W        W26280  10.253  12.704  16.296
25800W        W26281   7.628  11.719  16.720
25801W        W26282  10.406  12.771  17.547
25802W        W26283  10.757  14.389  16.693
25803W        W26284   9.694  14.366  17.419
25804W        W26285   9.688  11.696  17.183
25805W        W26286   8.895  14.404  17.244
25806W        W26287  10.592  11.358  15.710
25807W        W26288  10.383  12.677  17.011
25808W        W26289   7.366  11.998  17.049
25809W        W26290  10.226  11.793  16.067
25810W        W26291   9.522  13.643  16.062
25811W        W26292   8.778  14.234  15.675
25812W        W26293   7.893  11.414  14.933
25813W        W26294   8.997  11.068  16.743
25814W        W26295   8.025  14.188  14.591
25815W        W26296   8.399  12.654  15.342
25816W        W26297   9.053  13.283  17.655
25817W        W26298   8.883  11.641  15.645
25818W        W26299  10.239  11.238  16.073
25819W        W26300   9.959  14.520  16.401
25820W        W26301   9.371  14.168  16.741
25821W        W26302   8.767  13.205  16.702
25822W        W26303  10.537  13.928  16.828
25823W        W26304   8.231  11.431  15.597
25824W        W26305   8.753  13.728  16.557
25825W        W26306   8.236  11.659  14.622
25826W        W26307   9.037  12.268  17.016
25827W        W26308   9.885  11.134  16.886
25828W        W26309   7.305  12.977  16.771
25829W        W26310   9.009  12.795  14.929
25830W        W26311   8.277  11.110  14.699
25831W        W26312   9.015  12.191  15.750
25832W        W26313   9.985  11.167  17.449
25833W        W26314   8.573  13.179  17.558
25834W        W26315   9.994  12.991  17.668
25835W        W26316   8.500  11.747  16.566
25836W        W26317   7.926  11.703  15.964
25837W        W26318   7.712  14.415  15.640
25838W        W26319   9.044  13.745  17.765
25839W        W26320   8.079  13.230  15.124
25840W        W26321   9.759  12.615  16.345
25841W        W26322  10.039  12.414  16.744
25842W        W26323   9.244  13.088  16.678
25843W        W26324   9.714  13.462  14.810
25844W        W26325   9.386  11.483  16.138
25845W        W26326  10.865  11.761  15.406
25846W        W26327   7.359  14.350  17.437
25847W        W26328   7.776  13.576  16.969
25848W        W26329   7.343  14.422  15.201
25849W        W26330   9.242  11.692  17.007
25850W        W26331   8.605  13.715  14.856
25851W        W26332  10.510  14.097  15.042
25852W        W26333   9.485  12.750  15.056
25853W        W26334   8.328  11.941  15.573
25854W        W26335  10.097  11.322  15.420
25855W        W26336   7.427  11.170  14.868
25856W        W26337   8.713  13.489  17.158
25857W        W26338   8.512  13.405  16.250
25858W        W26339   8.254  13.357  14.648
25859W        W26340   7.495  13.598  15.416
25860W        W26341   9.412  11.370  17.400
25861W        W26342   8.607  11.138  15.681
25862W        W26343   9.666  11.215  15.186
25863W        W26344   7.611  11.147  16.763
25864W        W26345   7.659  12.110  16.133
25865W        W26346  10.348  11.218  16.539
25866W        W26347   7.770  11.716  15.353
25867W        W26348  10.341  11.404  16.969
25868W        W26349  10.737  12.607  14.654
25869W        W26350   8.029  11.365  16.473
25870W        W26351   9.143  11.937  17.413
25871W        W26352   7.291  11.627  14.891
25872W        W26353   8.077  13.016  17.452
25873W        W26354   9.435  12.414  16.631
25874W        W26355   9.302  14.493  14.927
25875W        W26356   7.448  13.000  14.624
25876W        W26357   7.704  12.578  17.381
25877W        W26358  10.463  11.042  17.437
25878W        W26359  10.861  12.652  17.428
25879W        W26360  10.849  12.852  15.114
25880W        W26361   9.712  13.184  15.213
25881W        W26362  10.186  14.484  14.908
25882W        W26363  10.617  12.291  16.663
25883W        W26364   8.780  11.050  14.867
25884W        W26365  10.319  13.649  14.810
25885W        W26366   8.522  13.736  17.558
25886W        W26367  10.648  11.727  17.356
25887W        W26368   9.859  14.386  15.324
25888W        W26369  10.098  13.005  16.691
25889W        W26370   8.348  11.421  17.358
25890W        W26371   8.320  13.669  15.309
25891W        W26372  10.075  13.167  15.573
25892W        W26373   7.843  11.793  17.297
25893W        W26374   9.172  13.855  15.761
25894W        W26375  10.922  12.415  15.942
25895W        W26376   9.144  11.048  17.661
25896W        W26377   9.924  13.753  16.740
25897W        W26378  10.227  14.097  16.448
25898W        W26379   9.446  13.899  14.876
25899W        W26380   7.456  13.791  17.718
25900W        W26381   8.199  11.783  16.956
25901W        W26382   8.169  11.131  16.066
25902W        W26383   9.790  11.973  16.758
25903W        W26384   8.588  13.144  14.958
25904W        W26385  10.586  13.086  16.457
25905W        W26386  10.300  14.526  15.677
25906W        W26387   8.399  11.546  16.122
25907W        W26388   8.168  13.039  16.212
25908W        W26389   8.481  14.450  16.962
25909W        W26390   9.707  12.734  16.927
25910W        W26391  10.690  14.190  15.539
25911W        W26392  10.527  11.514  15.158
25912W        W26393   8.666  11.033  17.561
25913W        W26394  10.372  13.835  16.019
25914W        W26395  10.401  12.391  15.924
25915W        W26396   8.518  12.064  16.140
25916W        W26397   8.763  12.326  17.464
25917W        W26398   9.874  13.479  17.327
25918W        W26399   8.524  11.933  17.439
25919W        W26400   8.503  14.399  16.055
25920W        W26401   7.932  13.719  14.819
25921W        W26402  10.449  13.477  15.629
25922W        W26403   8.053  12.269  17.515
25923W        W26404  10.826  12.199  14.996
25924W        W26405   8.571  13.256  15.467
25925W        W26406   9.670  12.638  17.548
25926W        W26407   9.561  12.266  17.092
25927W        W26408   8.121  12.638  17.121
25928W        W26409  10.331  14.526  16.950
25929W        W26410   7.786  11.310  17.531
25930W        W26411   8.125  12.333  16.584
25931W        W26412   8.494  12.147  14.706
25932W        W26413   7.297  13.906  17.251
25933W        W26414   8.882  12.615  16.694
25934W        W26415   8.705  11.640  14.799
25935W        W26416   7.840  12.456  15.580
25936W        W26417   7.611  14.308  17.017
25937W        W26418  10.406  12.534  15.125
25938W        W26419   9.937  13.659  15.774
25939W        W26420  10.501  11.047  15.247
25940W        W26421  10.021  13.522  15.258
25941W        W26422   8.923  12.580  15.343
25942W        W26423  10.110  11.384  14.866
25943W        W26424  10.175  11.991  17.052
25944W        W26425   7.884  12.584  16.259
25945W        W26426   8.178  13.523  15.908
25946W        W26427   9.941  12.143  15.873
25947W        W26428   8.964  11.522  16.569
25948W        W26429  10.926  13.433  17.080
25949W        W26430  10.844  11.420  16.641
25950W        W26431   7.383  14.250  16.017
25951W        W26432   7.892  13.437  15.553
25952W        W26433  10.681  12.875  15.998
25953W        W26434  10.035  13.052  14.878
25954W        W26435   9.330  14.573  17.090
25955W        W26436   9.002  11.005  15.407
25956W        W26437   9.715  11.874  16.266
25957W        W26438   7.401  13.461  16.598
25958W        W26439   8.654  11.423  15.239
25959W        W26440   9.452  11.888  15.802
25960W        W26441   9.657  13.298  16.924
25961W        W26442   7.811  13.903  17.359
25962W        W26443   8.253  11.683  15.096
25963W        W26444   9.770  11.825  15.421
25964W        W26445   9.728  13.933  17.658
25965W        W26446   8.413  12.525  16.257
25966W        W26447   8.068  14.223  17.122
25967W        W26448  10.813  14.340  14.723
25968W        W26449   9.671  13.274  16.407
25969W        W26450   8.107  12.923  15.649
25970W        W26451   8.478  13.930  17.044
25971W        W26452   8.856  11.349  16.085
25972W        W26453   7.467  13.333  15.015
25973W        W26454   8.986  12.284  14.885
25974W        W26455   7.632  12.833  15.904
25975W        W26456   8.922  11.475  17.368
25976W        W26457  10.594  11.184  14.795
25977W        W26458  10.899  13.281  17.568
25978W        W26459   8.046  14.535  16.657
25979W        W26460  10.905  13.157  15.531
25980W        W26461   9.435  12.424  16.044
25981W        W26462   9.202  11.036  15.934
25982W        W26463   8.261  14.020  15.771
25983W        W26464   8.760  11.761  16.996
25984W        W26465   8.460  11.130  16.465
25985W        W26466   7.523  13.952  15.013
25986W        W26467   9.339  13.316  15.731
25987W        W26468   8.214  14.111  17.610
25988W        W26469   7.691  12.934  15.306
25989W        W26470   7.576  11.477  16.305
25990W        W26471   9.124  13.442  16.362
25991W        W26472   7.376  11.296  15.382
25992W        W26473   9.917  11.888  14.881
25993W        W26474  10.434  13.560  16.529
25994W        W26475   9.095  14.044  16.360
25995W        W26476   8.507  14.148  15.271
25996W        W26477   9.789  11.051  14.701
25997W        W26478   7.589  14.311  16.442
25998W        W26479   7.500  12.199  15.409
25999W        W26480   8.191  12.188  15.134
26000W        W26481   8.297  12.796  16.660
26001W        W26482   9.771  11.082  15.780
26002W        W26483   8.902  14.513  16.283
26003W        W26484  10.116  13.975  17.220
26004W        W26485   9.700  14.124  16.331
26005W        W26486   9.719  13.104  15.925
26006W        W26487   9.181  11.329  14.996
26007W        W26488  10.862  10.957  15.718
26008W        W26489   8.550  12.592  14.881
26009W        W26490  10.716  11.929  15.871
26010W        W26491   9.408  13.099  14.748
26011W        W26492  10.344  13.299  17.496
26012W        W26493   9.998  14.000  14.963
26013W        W26494   8.433  12.259  17.110
26014W        W26495  10.525  13.754  17.387
26015W        W26496   7.469  12.175  17.541
26016W        W26497   9.229  12.652  17.267
26017W        W26498   7.586  13.410  15.924
26018W        W26499   7.733  12.707  16.814
26019W        W26500  10.050  12.993  17.164
26020W        W26501   9.822  14.373  17.975
26021W        W26502   9.718  12.112  17.528
26022W        W26503   9.995  14.166  15.933
26023W        W26504   8.997  13.886  17.256
26024W        W26505   8.482  14.241  16.525
26025W        W26506  10.287  13.412  16.944
26026W        W26507   7.942  13.437  16.420
26027W        W26508  10.288  13.196  16.065
26028W        W26509   9.929  14.262  16.816
26029W        W26510   7.907  13.991  16.686
26030W        W26511   9.379  14.209  15.407
26031W        W26512   8.813  13.702  15.422
26032W        W26513   7.749  17.065   2.882
26033W        W26514  10.454  16.795   0.652
26034W        W26515   8.585  16.023   1.188
26035W        W26516   8.100  15.871   1.352
26036W        W26517   9.091  16.686   0.786
26037W        W26518   7.415  15.339   3.104
26038W        W26519   8.177  14.619   2.906
26039W        W26520   9.871  15.007   1.793
26040W        W26521   9.520  15.878   0.363
26041W        W26522  10.090  15.312   3.454
26042W        W26523   7.456  15.104   2.579
26043W        W26524   7.555  17.723   3.600
26044W        W26525   9.077  17.113   0.332
26045W        W26526   7.509  15.896   2.025
26046W        W26527   8.402  15.787   3.262
26047W        W26528  10.861  15.646   1.761
26048W        W26529  10.625  16.689   2.620
26049W        W26530   8.933  16.022   1.647
26050W        W26531   9.479  17.361   2.016
26051W        W26532   7.979  16.795   2.248
26052W        W26533   7.338  16.323   1.819
26053W        W26534   8.374  16.295   3.011
26054W        W26535  10.645  16.078   3.265
26055W        W26536   8.261  17.522   1.710
26056W        W26537   8.602  15.851   2.069
26057W        W26538   8.894  16.635   1.712
26058W        W26539   9.891  17.408   3.560
26059W        W26540   8.951  16.444   3.048
26060W        W26541   7.360  15.835   3.570
26061W        W26542  10.192  17.370   3.169
26062W        W26543   7.773  14.952   1.167
26063W        W26544   8.300  17.210   2.166
26064W        W26545  10.763  16.993   1.456
26065W        W26546  10.176  15.393   2.023
26066W        W26547  10.461  15.346   0.118
26067W        W26548  10.926  16.147   2.424
26068W        W26549  10.667  17.320   0.615
26069W        W26550   7.986  14.906   2.471
26070W        W26551  10.609  15.924   2.746
26071W        W26552  10.014  16.346   1.205
26072W        W26553   9.980  16.034   0.232
26073W        W26554   9.188  17.178   2.372
26074W        W26555   8.994  15.508   1.571
26075W        W26556   9.594  17.595   2.565
26076W        W26557  10.465  16.386   0.987
26077W        W26558   8.024  17.738   0.686
26078W        W26559   7.395  15.237   1.285
26079W        W26560  10.181  15.844   1.759
26080W        W26561   7.639  17.461   1.674
26081W        W26562  10.372  15.837   0.008
26082W        W26563   7.395  17.595   2.172
26083W        W26564   8.186  17.167   2.652
26084W        W26565   8.559  16.527   1.271
26085W        W26566   8.581  14.932   2.364
26086W        W26567  10.810  14.694   1.661
26087W        W26568   8.029  16.566   0.129
26088W        W26569   7.684  15.599   0.308
26089W        W26570   7.746  17.555   1.102
26090W        W26571   8.877  17.038   1.350
26091W        W26572   9.135  15.539   0.748
26092W        W26573  10.195  15.790   3.118
26093W        W26574  10.908  17.446   1.252
26094W        W26575   9.535  16.738   2.736
26095W        W26576   7.301  16.289   0.942
26096W        W26577   8.412  16.704   2.515
26097W        W26578   9.616  15.968   0.893
26098W        W26579   9.493  16.458   0.997
26099W        W26580   7.836  15.878   2.471
26100W        W26581   7.821  15.754   3.393
26101W        W26582   7.711  14.671   1.552
26102W        W26583   9.479  15.018   2.113
26103W        W26584   9.127  15.203   3.276
26104W        W26585   9.482  15.352   0.454
26105W        W26586   9.632  14.826   3.247
26106W        W26587  10.651  17.127   3.369
26107W        W26588  10.081  15.294   2.965
26108W        W26589   9.881  15.232   1.235
26109W        W26590  10.274  16.366   3.639
26110W        W26591   8.672  15.659   0.611
26111W        W26592   8.241  14.943   3.275
26112W        W26593  10.293  15.427   0.956
26113W        W26594  10.660  15.909   0.901
26114W        W26595   8.329  14.662   0.607
26115W        W26596  10.650  15.196   1.642
26116W        W26597  10.800  17.445   0.087
26117W        W26598   7.707  16.648   1.789
26118W        W26599  10.758  17.567   1.739
26119W        W26600  10.797  14.761   2.489
26120W        W26601   9.242  15.973   3.043
26121W        W26602   9.335  17.312   0.746
26122W        W26603   9.735  16.606   3.486
26123W        W26604   9.409  14.583   1.795
26124W        W26605   8.021  15.486   1.858
26125W        W26606   7.575  16.686   2.632
26126W        W26607  10.628  15.476   2.210
26127W        W26608  10.608  16.882   0.182
26128W        W26609   9.043  16.365   1.243
26129W        W26610  10.895  14.876   2.984
26130W        W26611   9.044  16.711   2.578
26131W        W26612   9.261  15.597   2.023
26132W        W26613  10.113  15.895   0.861
26133W        W26614  10.400  15.628   0.503
26134W        W26615  10.209  17.668   0.892
26135W        W26616  10.043  17.271   1.688
26136W        W26617   9.939  16.350   0.666
26137W        W26618   9.372  16.560   1.652
26138W        W26619  10.253  16.348   1.719
26139W        W26620   7.628  15.363   2.143
26140W        W26621  10.406  16.415   2.970
26141W        W26622   8.687  17.477   1.518
26142W        W26623   9.688  15.340   2.606
26143W        W26624  10.592  15.002   1.133
26144W        W26625  10.383  16.321   2.434
26145W        W26626   7.366  15.642   2.472
26146W        W26627  10.226  15.437   1.490
26147W        W26628  10.637  15.588   3.267
26148W        W26629   9.522  17.287   1.485
26149W        W26630   7.893  15.058   0.356
26150W        W26631   8.997  14.712   2.166
26151W        W26632   8.025  17.832   0.014
26152W        W26633   8.399  16.298   0.765
26153W        W26634   9.053  16.927   3.078
26154W        W26635   8.883  15.285   1.068
26155W        W26636  10.239  14.882   1.496
26156W        W26637   8.767  16.849   2.125
26157W        W26638  10.537  17.572   2.251
26158W        W26639   8.231  15.075   1.020
26159W        W26640   8.753  17.372   1.980
26160W        W26641   8.236  15.303   0.045
26161W        W26642   9.037  15.912   2.439
26162W        W26643   9.885  14.778   2.309
26163W        W26644   7.305  16.621   2.194
26164W        W26645   9.009  16.439   0.352
26165W        W26646   8.277  14.754   0.122
26166W        W26647   9.015  15.835   1.173
26167W        W26648   9.985  14.811   2.872
26168W        W26649   8.573  16.823   2.981
26169W        W26650   9.377  16.605   3.198
26170W        W26651   9.994  16.635   3.091
26171W        W26652   9.278  14.775   3.596
26172W        W26653   8.500  15.391   1.989
26173W        W26654   7.926  15.347   1.387
26174W        W26655   9.044  17.389   3.188
26175W        W26656   8.079  16.874   0.547
26176W        W26657   9.759  16.259   1.768
26177W        W26658  10.039  16.058   2.167
26178W        W26659   9.244  16.732   2.101
26179W        W26660   9.714  17.106   0.233
26180W        W26661   9.386  15.127   1.561
26181W        W26662  10.865  15.405   0.829
26182W        W26663   7.776  17.220   2.392
26183W        W26664   9.242  15.336   2.430
26184W        W26665   8.605  17.359   0.279
26185W        W26666   9.485  16.394   0.479
26186W        W26667   8.328  15.585   0.996
26187W        W26668   9.160  15.495   0.048
26188W        W26669   9.744  17.060   3.226
26189W        W26670  10.097  14.966   0.843
26190W        W26671   7.427  14.814   0.291
26191W        W26672   8.713  17.133   2.581
26192W        W26673   8.512  17.049   1.673
26193W        W26674   8.254  17.001   0.071
26194W        W26675   7.495  17.242   0.839
26195W        W26676   7.999  16.312   3.281
26196W        W26677   8.703  14.872   3.467
26197W        W26678   9.412  15.014   2.823
26198W        W26679   8.607  14.782   1.104
26199W        W26680   9.666  14.859   0.609
26200W        W26681   7.611  14.791   2.186
26201W        W26682   7.659  15.754   1.556
26202W        W26683  10.348  14.862   1.962
26203W        W26684   7.770  15.360   0.776
26204W        W26685  10.341  15.048   2.392
26205W        W26686  10.737  16.251   0.077
26206W        W26687   8.029  15.009   1.896
26207W        W26688   9.143  15.581   2.836
26208W        W26689   7.291  15.271   0.314
26209W        W26690   8.077  16.660   2.875
26210W        W26691   9.435  16.058   2.054
26211W        W26692   7.448  16.644   0.047
26212W        W26693   7.704  16.222   2.804
26213W        W26694   8.695  16.327   2.598
26214W        W26695  10.463  14.686   2.860
26215W        W26696  10.861  16.296   2.851
26216W        W26697  10.849  16.496   0.537
26217W        W26698   9.712  16.828   0.636
26218W        W26699   9.363  16.118   3.473
26219W        W26700   7.693  17.085   3.513
26220W        W26701  10.899  15.007   3.465
26221W        W26702  10.617  15.935   2.086
26222W        W26703   8.780  14.694   0.290
26223W        W26704  10.319  17.293   0.233
26224W        W26705   8.088  15.386   3.119
26225W        W26706   8.522  17.380   2.981
26226W        W26707  10.098  16.649   2.114
26227W        W26708   8.348  15.065   2.781
26228W        W26709   8.817  16.134   3.538
26229W        W26710   8.320  17.313   0.732
26230W        W26711  10.075  16.811   0.996
26231W        W26712   7.843  15.437   2.720
26232W        W26713   9.172  17.499   1.184
26233W        W26714  10.922  16.059   1.365
26234W        W26715   9.924  17.397   2.163
26235W        W26716  10.227  17.741   1.871
26236W        W26717   9.446  17.543   0.299
26237W        W26718   7.456  17.435   3.141
26238W        W26719   8.199  15.427   2.379
26239W        W26720   8.169  14.775   1.489
26240W        W26721   9.790  15.617   2.181
26241W        W26722   8.588  16.788   0.381
26242W        W26723  10.586  16.730   1.880
26243W        W26724   7.913  17.488   3.303
26244W        W26725   8.399  15.190   1.545
26245W        W26726   8.168  16.683   1.635
26246W        W26727   9.707  16.378   2.350
26247W        W26728   7.556  16.176   0.265
26248W        W26729  10.527  15.158   0.581
26249W        W26730   8.666  14.677   2.984
26250W        W26731  10.372  17.479   1.442
26251W        W26732  10.401  16.035   1.347
26252W        W26733   8.518  15.708   1.563
26253W        W26734   8.763  15.970   2.887
26254W        W26735   9.874  17.123   2.750
26255W        W26736   8.524  15.577   2.862
26256W        W26737   7.932  17.363   0.242
26257W        W26738  10.449  17.121   1.052
26258W        W26739   8.053  15.913   2.938
26259W        W26740  10.826  15.843   0.419
26260W        W26741   8.571  16.900   0.890
26261W        W26742   9.670  16.282   2.971
26262W        W26743   9.561  15.910   2.515
26263W        W26744   8.121  16.282   2.544
26264W        W26745  10.122  14.804   3.367
26265W        W26746   7.786  14.954   2.954
26266W        W26747   8.125  15.977   2.007
26267W        W26748   8.494  15.791   0.129
26268W        W26749   7.297  17.550   2.674
26269W        W26750   8.882  16.259   2.117
26270W        W26751   8.705  15.284   0.222
26271W        W26752   7.840  16.100   1.003
26272W        W26753  10.406  16.178   0.548
26273W        W26754  10.501  15.094   3.234
26274W        W26755   9.937  17.303   1.197
26275W        W26756   7.535  16.227   3.374
26276W        W26757  10.501  14.691   0.670
26277W        W26758  10.021  17.166   0.681
26278W        W26759   8.923  16.224   0.766
26279W        W26760  10.110  15.028   0.289
26280W        W26761  10.175  15.635   2.475
26281W        W26762   7.884  16.228   1.682
26282W        W26763   8.178  17.167   1.331
26283W        W26764   9.941  15.787   1.296
26284W        W26765   8.964  15.166   1.992
26285W        W26766  10.926  17.077   2.503
26286W        W26767  10.844  15.064   2.064
26287W        W26768   7.892  17.081   0.976
26288W        W26769   7.807  14.698   3.529
26289W        W26770   8.926  17.551   3.631
26290W        W26771  10.681  16.519   1.421
26291W        W26772  10.035  16.696   0.301
26292W        W26773  10.187  16.939   3.550
26293W        W26774   9.002  14.649   0.830
26294W        W26775   9.715  15.518   1.689
26295W        W26776   7.401  17.105   2.021
26296W        W26777   8.654  15.067   0.662
26297W        W26778   8.458  16.551   3.511
26298W        W26779   9.452  15.532   1.225
26299W        W26780   9.657  16.942   2.347
26300W        W26781   7.811  17.547   2.782
26301W        W26782   8.402  17.530   3.505
26302W        W26783   8.253  15.327   0.519
26303W        W26784   9.770  15.469   0.844
26304W        W26785   9.728  17.577   3.081
26305W        W26786   8.413  16.169   1.680
26306W        W26787   7.676  16.656   3.142
26307W        W26788   9.671  16.918   1.830
26308W        W26789   8.107  16.567   1.072
26309W        W26790   8.478  17.574   2.467
26310W        W26791   8.856  14.993   1.508
26311W        W26792   7.467  16.977   0.438
26312W        W26793   8.986  15.928   0.308
26313W        W26794   7.632  16.477   1.327
26314W        W26795   8.922  15.119   2.791
26315W        W26796  10.594  14.828   0.218
26316W        W26797  10.687  16.574   3.317
26317W        W26798  10.899  16.925   2.991
26318W        W26799  10.307  17.723   3.602
26319W        W26800  10.905  16.801   0.954
26320W        W26801   9.435  16.068   1.467
26321W        W26802   9.202  14.680   1.357
26322W        W26803   8.261  17.664   1.194
26323W        W26804   8.760  15.405   2.419
26324W        W26805   8.460  14.774   1.888
26325W        W26806   7.523  17.596   0.436
26326W        W26807   9.339  16.960   1.154
26327W        W26808   7.691  16.578   0.729
26328W        W26809   7.576  15.121   1.728
26329W        W26810   9.124  17.086   1.785
26330W        W26811   7.376  14.940   0.805
26331W        W26812  10.040  16.146   2.732
26332W        W26813   9.917  15.532   0.304
26333W        W26814  10.434  17.204   1.952
26334W        W26815   9.095  17.688   1.783
26335W        W26816   9.786  15.713   3.500
26336W        W26817   7.769  15.243   3.499
26337W        W26818   7.500  15.843   0.832
26338W        W26819   8.191  15.832   0.557
26339W        W26820   9.954  16.159   3.374
26340W        W26821   8.297  16.440   2.083
26341W        W26822   9.771  14.726   1.203
26342W        W26823  10.116  17.619   2.643
26343W        W26824   9.719  16.748   1.348
26344W        W26825   9.181  14.973   0.419
26345W        W26826  10.862  14.601   1.141
26346W        W26827   8.550  16.236   0.304
26347W        W26828  10.716  15.573   1.294
26348W        W26829   9.408  16.743   0.171
26349W        W26830  10.344  16.943   2.919
26350W        W26831   9.998  17.644   0.386
26351W        W26832   8.613  15.319   3.292
26352W        W26833   8.433  15.903   2.533
26353W        W26834  10.525  17.398   2.810
26354W        W26835   9.625  15.348   3.187
26355W        W26836   7.469  15.819   2.964
26356W        W26837   9.229  16.296   2.690
26357W        W26838   7.586  17.054   1.347
26358W        W26839   7.733  16.351   2.237
26359W        W26840  10.050  16.637   2.587
26360W        W26841   9.718  15.756   2.951
26361W        W26842   8.997  17.530   2.679
26362W        W26843  10.287  17.056   2.367
26363W        W26844   9.337  17.128   3.504
26364W        W26845   7.942  17.081   1.843
26365W        W26846  10.288  16.840   1.488
26366W        W26847   7.907  17.635   2.109
26367W        W26848   8.928  15.687   3.319
26368W        W26849   8.687  17.108   3.468
26369W        W26850   8.813  17.346   0.845
26370W        W26851   8.034  16.086   0.104
26371W        W26852   7.749  17.065   6.526
26372W        W26853  10.454  16.795   4.296
26373W        W26854   8.585  16.023   4.832
26374W        W26855   8.100  15.871   4.996
26375W        W26856   9.091  16.686   4.430
26376W        W26857   7.415  15.339   6.748
26377W        W26858   8.177  14.619   6.550
26378W        W26859   9.871  15.007   5.437
26379W        W26860   9.520  15.878   4.007
26380W        W26861  10.090  15.312   7.098
26381W        W26862   7.456  15.104   6.223
26382W        W26863   7.555  17.723   7.244
26383W        W26864   9.077  17.113   3.976
26384W        W26865   7.509  15.896   5.669
26385W        W26866   8.402  15.787   6.906
26386W        W26867  10.861  15.646   5.405
26387W        W26868  10.625  16.689   6.264
26388W        W26869   8.933  16.022   5.291
26389W        W26870   9.479  17.361   5.660
26390W        W26871   7.979  16.795   5.892
26391W        W26872   7.338  16.323   5.463
26392W        W26873   8.374  16.295   6.655
26393W        W26874  10.645  16.078   6.909
26394W        W26875   8.261  17.522   5.354
26395W        W26876   9.382  17.211   6.488
26396W        W26877   8.602  15.851   5.713
26397W        W26878   8.894  16.635   5.356
26398W        W26879   9.891  17.408   7.204
26399W        W26880   8.970  16.728   7.214
26400W        W26881   8.951  16.444   6.692
26401W        W26882   7.360  15.835   7.214
26402W        W26883  10.192  17.370   6.813
26403W        W26884   7.773  14.952   4.811
26404W        W26885   8.300  17.210   5.810
26405W        W26886  10.763  16.993   5.100
26406W        W26887  10.176  15.393   5.667
26407W        W26888  10.461  15.346   3.762
26408W        W26889  10.926  16.147   6.068
26409W        W26890  10.667  17.320   4.259
26410W        W26891   7.986  14.906   6.115
26411W        W26892  10.609  15.924   6.390
26412W        W26893  10.014  16.346   4.849
26413W        W26894   9.188  17.178   6.016
26414W        W26895   8.994  15.508   5.215
26415W        W26896   9.594  17.595   6.209
26416W        W26897  10.465  16.386   4.631
26417W        W26898   9.367  15.044   4.647
26418W        W26899   8.024  17.738   4.330
26419W        W26900   7.395  15.237   4.929
26420W        W26901  10.181  15.844   5.403
26421W        W26902   7.639  17.461   5.318
26422W        W26903  10.372  15.837   3.652
26423W        W26904   7.395  17.595   5.816
26424W        W26905   8.186  17.167   6.296
26425W        W26906   8.559  16.527   4.915
26426W        W26907   8.581  14.932   6.008
26427W        W26908  10.810  14.694   5.305
26428W        W26909   8.029  16.566   3.773
26429W        W26910   7.684  15.599   3.952
26430W        W26911   7.746  17.555   4.746
26431W        W26912   8.877  17.038   4.994
26432W        W26913   9.135  15.539   4.392
26433W        W26914  10.195  15.790   6.762
26434W        W26915  10.908  17.446   4.896
26435W        W26916   9.535  16.738   6.380
26436W        W26917   7.301  16.289   4.586
26437W        W26918   8.412  16.704   6.159
26438W        W26919   9.616  15.968   4.537
26439W        W26920   9.493  16.458   4.641
26440W        W26921   7.836  15.878   6.115
26441W        W26922   7.821  15.754   7.037
26442W        W26923   7.711  14.671   5.196
26443W        W26924   9.479  15.018   5.757
26444W        W26925   9.127  15.203   6.920
26445W        W26926   9.482  15.352   4.098
26446W        W26927  10.665  17.745   6.852
26447W        W26928   9.632  14.826   6.891
26448W        W26929  10.651  17.127   7.013
26449W        W26930  10.081  15.294   6.609
26450W        W26931   9.881  15.232   4.879
26451W        W26932  10.274  16.366   7.283
26452W        W26933   8.672  15.659   4.255
26453W        W26934   8.241  14.943   6.919
26454W        W26935  10.293  15.427   4.600
26455W        W26936  10.660  15.909   4.545
26456W        W26937   8.329  14.662   4.251
26457W        W26938  10.650  15.196   5.286
26458W        W26939  10.800  17.445   3.731
26459W        W26940   7.707  16.648   5.433
26460W        W26941  10.758  17.567   5.383
26461W        W26942  10.797  14.761   6.133
26462W        W26943   9.242  15.973   6.687
26463W        W26944   9.335  17.312   4.390
26464W        W26945   9.735  16.606   7.130
26465W        W26946   9.409  14.583   5.439
26466W        W26947   8.021  15.486   5.502
26467W        W26948   7.575  16.686   6.276
26468W        W26949  10.628  15.476   5.854
26469W        W26950  10.608  16.882   3.826
26470W        W26951   9.043  16.365   4.887
26471W        W26952  10.895  14.876   6.628
26472W        W26953   9.261  15.597   5.667
26473W        W26954  10.113  15.895   4.505
26474W        W26955  10.400  15.628   4.147
26475W        W26956  10.209  17.668   4.536
26476W        W26957  10.043  17.271   5.332
26477W        W26958   9.939  16.350   4.310
26478W        W26959   9.372  16.560   5.296
26479W        W26960  10.253  16.348   5.363
26480W        W26961   7.628  15.363   5.787
26481W        W26962  10.406  16.415   6.614
26482W        W26963   8.687  17.477   5.162
26483W        W26964   9.688  15.340   6.250
26484W        W26965  10.592  15.002   4.777
26485W        W26966  10.383  16.321   6.078
26486W        W26967   7.366  15.642   6.116
26487W        W26968  10.226  15.437   5.134
26488W        W26969  10.637  15.588   6.911
26489W        W26970   9.522  17.287   5.129
26490W        W26971   7.893  15.058   4.000
26491W        W26972   8.997  14.712   5.810
26492W        W26973   8.399  16.298   4.409
26493W        W26974   9.053  16.927   6.722
26494W        W26975   8.883  15.285   4.712
26495W        W26976  10.239  14.882   5.140
26496W        W26977   8.767  16.849   5.769
26497W        W26978  10.537  17.572   5.895
26498W        W26979   8.231  15.075   4.664
26499W        W26980   8.753  17.372   5.624
26500W        W26981   8.236  15.303   3.689
26501W        W26982   9.037  15.912   6.083
26502W        W26983   9.885  14.778   5.953
26503W        W26984   7.305  16.621   5.838
26504W        W26985   9.009  16.439   3.996
26505W        W26986   8.277  14.754   3.766
26506W        W26987   9.015  15.835   4.817
26507W        W26988   9.985  14.811   6.516
26508W        W26989   8.573  16.823   6.625
26509W        W26990   9.377  16.605   6.842
26510W        W26991   9.994  16.635   6.735
26511W        W26992   9.278  14.775   7.240
26512W        W26993   8.500  15.391   5.633
26513W        W26994   7.926  15.347   5.031
26514W        W26995   9.044  17.389   6.832
26515W        W26996   9.759  16.259   5.412
26516W        W26997  10.039  16.058   5.811
26517W        W26998   9.244  16.732   5.745
26518W        W26999   9.714  17.106   3.877
26519W        W27000   9.386  15.127   5.205
26520W        W27001  10.865  15.405   4.473
26521W        W27002   7.776  17.220   6.036
26522W        W27003   8.605  17.359   3.923
26523W        W27004   9.485  16.394   4.123
26524W        W27005   8.328  15.585   4.640
26525W        W27006   9.160  15.495   3.692
26526W        W27007   9.744  17.060   6.870
26527W        W27008  10.097  14.966   4.487
26528W        W27009   7.427  14.814   3.935
26529W        W27010   8.713  17.133   6.225
26530W        W27011   8.512  17.049   5.317
26531W        W27012   8.254  17.001   3.715
26532W        W27013   7.495  17.242   4.483
26533W        W27014   7.999  16.312   6.925
26534W        W27015   8.703  14.872   7.111
26535W        W27016   9.412  15.014   6.467
26536W        W27017   8.607  14.782   4.748
26537W        W27018   9.666  14.859   4.253
26538W        W27019   7.611  14.791   5.830
26539W        W27020   7.659  15.754   5.200
26540W        W27021  10.348  14.862   5.606
26541W        W27022   7.770  15.360   4.420
26542W        W27023  10.341  15.048   6.036
26543W        W27024   8.029  15.009   5.540
26544W        W27025   9.143  15.581   6.480
26545W        W27026   7.291  15.271   3.958
26546W        W27027   8.077  16.660   6.519
26547W        W27028   9.435  16.058   5.698
26548W        W27029   8.183  17.055   6.817
26549W        W27030   7.704  16.222   6.448
26550W        W27031   8.695  16.327   6.242
26551W        W27032  10.463  14.686   6.504
26552W        W27033  10.861  16.296   6.495
26553W        W27034  10.849  16.496   4.181
26554W        W27035   9.712  16.828   4.280
26555W        W27036   9.363  16.118   7.117
26556W        W27037   7.693  17.085   7.157
26557W        W27038  10.617  15.935   5.730
26558W        W27039   8.780  14.694   3.934
26559W        W27040  10.319  17.293   3.877
26560W        W27041   8.088  15.386   6.763
26561W        W27042   8.522  17.380   6.625
26562W        W27043  10.648  15.371   6.423
26563W        W27044  10.098  16.649   5.758
26564W        W27045   8.348  15.065   6.425
26565W        W27046   8.817  16.134   7.182
26566W        W27047   8.320  17.313   4.376
26567W        W27048  10.075  16.811   4.640
26568W        W27049   7.843  15.437   6.364
26569W        W27050   9.172  17.499   4.828
26570W        W27051  10.922  16.059   5.009
26571W        W27052   9.144  14.692   6.728
26572W        W27053   9.924  17.397   5.807
26573W        W27054  10.227  17.741   5.515
26574W        W27055   9.446  17.543   3.943
26575W        W27056   7.456  17.435   6.785
26576W        W27057   8.199  15.427   6.023
26577W        W27058   8.169  14.775   5.133
26578W        W27059   9.790  15.617   5.825
26579W        W27060   8.588  16.788   4.025
26580W        W27061  10.586  16.730   5.524
26581W        W27062   7.913  17.488   6.947
26582W        W27063   8.399  15.190   5.189
26583W        W27064   8.168  16.683   5.279
26584W        W27065   9.707  16.378   5.994
26585W        W27066   7.556  16.176   3.909
26586W        W27067  10.527  15.158   4.225
26587W        W27068   8.666  14.677   6.628
26588W        W27069  10.372  17.479   5.086
26589W        W27070  10.401  16.035   4.991
26590W        W27071   8.518  15.708   5.207
26591W        W27072   8.763  15.970   6.531
26592W        W27073   9.874  17.123   6.394
26593W        W27074   8.524  15.577   6.506
26594W        W27075   7.932  17.363   3.886
26595W        W27076  10.449  17.121   4.696
26596W        W27077   8.053  15.913   6.582
26597W        W27078  10.826  15.843   4.063
26598W        W27079   8.571  16.900   4.534
26599W        W27080   9.670  16.282   6.615
26600W        W27081   9.561  15.910   6.159
26601W        W27082   8.121  16.282   6.188
26602W        W27083  10.122  14.804   7.011
26603W        W27084   7.786  14.954   6.598
26604W        W27085   8.125  15.977   5.651
26605W        W27086   8.494  15.791   3.773
26606W        W27087   7.297  17.550   6.318
26607W        W27088   8.882  16.259   5.761
26608W        W27089   8.705  15.284   3.866
26609W        W27090   7.840  16.100   4.647
26610W        W27091  10.406  16.178   4.192
26611W        W27092  10.501  15.094   6.878
26612W        W27093   9.937  17.303   4.841
26613W        W27094   7.535  16.227   7.018
26614W        W27095  10.501  14.691   4.314
26615W        W27096  10.021  17.166   4.325
26616W        W27097   8.923  16.224   4.410
26617W        W27098  10.110  15.028   3.933
26618W        W27099  10.175  15.635   6.119
26619W        W27100   7.884  16.228   5.326
26620W        W27101   8.178  17.167   4.975
26621W        W27102   9.941  15.787   4.940
26622W        W27103   8.964  15.166   5.636
26623W        W27104  10.926  17.077   6.147
26624W        W27105  10.844  15.064   5.708
26625W        W27106   7.807  14.698   7.173
26626W        W27107   8.926  17.551   7.275
26627W        W27108  10.681  16.519   5.065
26628W        W27109  10.035  16.696   3.945
26629W        W27110  10.187  16.939   7.194
26630W        W27111   9.002  14.649   4.474
26631W        W27112   9.715  15.518   5.333
26632W        W27113   7.401  17.105   5.665
26633W        W27114   8.654  15.067   4.306
26634W        W27115   8.458  16.551   7.155
26635W        W27116   9.452  15.532   4.869
26636W        W27117   9.657  16.942   5.991
26637W        W27118   7.811  17.547   6.426
26638W        W27119   8.402  17.530   7.149
26639W        W27120   8.253  15.327   4.163
26640W        W27121   9.770  15.469   4.488
26641W        W27122   9.728  17.577   6.725
26642W        W27123   8.413  16.169   5.324
26643W        W27124   7.676  16.656   6.786
26644W        W27125   9.671  16.918   5.474
26645W        W27126   8.478  17.574   6.111
26646W        W27127   8.856  14.993   5.152
26647W        W27128   7.467  16.977   4.082
26648W        W27129   8.986  15.928   3.952
26649W        W27130   8.922  15.119   6.435
26650W        W27131  10.594  14.828   3.862
26651W        W27132  10.687  16.574   6.961
26652W        W27133  10.899  16.925   6.635
26653W        W27134  10.307  17.723   7.246
26654W        W27135  10.905  16.801   4.598
26655W        W27136   9.435  16.068   5.111
26656W        W27137   9.202  14.680   5.001
26657W        W27138   8.261  17.664   4.838
26658W        W27139   8.760  15.405   6.063
26659W        W27140   8.460  14.774   5.532
26660W        W27141   7.523  17.596   4.080
26661W        W27142   9.339  16.960   4.798
26662W        W27143   7.576  15.121   5.372
26663W        W27144   9.124  17.086   5.429
26664W        W27145   7.376  14.940   4.449
26665W        W27146  10.040  16.146   6.376
26666W        W27147   9.917  15.532   3.948
26667W        W27148  10.434  17.204   5.596
26668W        W27149   9.095  17.688   5.427
26669W        W27150   9.789  14.695   3.768
26670W        W27151   9.786  15.713   7.144
26671W        W27152   7.769  15.243   7.143
26672W        W27153   7.500  15.843   4.476
26673W        W27154   8.191  15.832   4.201
26674W        W27155   9.954  16.159   7.018
26675W        W27156   9.771  14.726   4.847
26676W        W27157  10.116  17.619   6.287
26677W        W27158   9.719  16.748   4.992
26678W        W27159   9.181  14.973   4.063
26679W        W27160  10.862  14.601   4.785
26680W        W27161   8.550  16.236   3.948
26681W        W27162  10.716  15.573   4.938
26682W        W27163   9.408  16.743   3.815
26683W        W27164  10.344  16.943   6.563
26684W        W27165   9.998  17.644   4.030
26685W        W27166   8.613  15.319   6.936
26686W        W27167   8.433  15.903   6.177
26687W        W27168  10.525  17.398   6.454
26688W        W27169   9.625  15.348   6.831
26689W        W27170   7.469  15.819   6.608
26690W        W27171   9.229  16.296   6.334
26691W        W27172   7.586  17.054   4.991
26692W        W27173   7.733  16.351   5.881
26693W        W27174  10.050  16.637   6.231
26694W        W27175   9.718  15.756   6.595
26695W        W27176   8.997  17.530   6.323
26696W        W27177  10.287  17.056   6.011
26697W        W27178   9.337  17.128   7.148
26698W        W27179   7.942  17.081   5.487
26699W        W27180  10.288  16.840   5.132
26700W        W27181   7.907  17.635   5.753
26701W        W27182   8.928  15.687   6.963
26702W        W27183   8.687  17.108   7.112
26703W        W27184   8.813  17.346   4.489
26704W        W27185   8.034  16.086   3.748
26705W        W27186   7.749  17.065  10.171
26706W        W27187  10.454  16.795   7.941
26707W        W27188   8.585  16.023   8.477
26708W        W27189   8.100  15.871   8.641
26709W        W27190   9.091  16.686   8.075
26710W        W27191   7.415  15.339  10.393
26711W        W27192   8.177  14.619  10.195
26712W        W27193   9.871  15.007   9.082
26713W        W27194   9.520  15.878   7.652
26714W        W27195  10.090  15.312  10.743
26715W        W27196   7.456  15.104   9.868
26716W        W27197   7.555  17.723  10.889
26717W        W27198   9.077  17.113   7.621
26718W        W27199   7.509  15.896   9.314
26719W        W27200   8.402  15.787  10.551
26720W        W27201  10.861  15.646   9.050
26721W        W27202  10.625  16.689   9.909
26722W        W27203   8.933  16.022   8.936
26723W        W27204   9.479  17.361   9.305
26724W        W27205   7.979  16.795   9.537
26725W        W27206   7.338  16.323   9.108
26726W        W27207   8.374  16.295  10.300
26727W        W27208  10.645  16.078  10.554
26728W        W27209   8.261  17.522   8.999
26729W        W27210   9.382  17.211  10.133
26730W        W27211   8.602  15.851   9.358
26731W        W27212   8.894  16.635   9.001
26732W        W27213   9.891  17.408  10.849
26733W        W27214   8.970  16.728  10.859
26734W        W27215   8.951  16.444  10.337
26735W        W27216   7.360  15.835  10.859
26736W        W27217  10.192  17.370  10.458
26737W        W27218   7.773  14.952   8.456
26738W        W27219   8.300  17.210   9.455
26739W        W27220  10.763  16.993   8.745
26740W        W27221  10.176  15.393   9.312
26741W        W27222  10.461  15.346   7.407
26742W        W27223  10.926  16.147   9.713
26743W        W27224  10.667  17.320   7.904
26744W        W27225   7.986  14.906   9.760
26745W        W27226  10.609  15.924  10.035
26746W        W27227  10.014  16.346   8.494
26747W        W27228   9.980  16.034   7.521
26748W        W27229   9.188  17.178   9.661
26749W        W27230   8.994  15.508   8.860
26750W        W27231   9.594  17.595   9.854
26751W        W27232  10.465  16.386   8.276
26752W        W27233   9.367  15.044   8.292
26753W        W27234   8.024  17.738   7.975
26754W        W27235   7.395  15.237   8.574
26755W        W27236  10.181  15.844   9.048
26756W        W27237   7.639  17.461   8.963
26757W        W27238  10.372  15.837   7.297
26758W        W27239   7.395  17.595   9.461
26759W        W27240   8.186  17.167   9.941
26760W        W27241   8.559  16.527   8.560
26761W        W27242   8.581  14.932   9.653
26762W        W27243  10.810  14.694   8.950
26763W        W27244   8.029  16.566   7.418
26764W        W27245   7.684  15.599   7.597
26765W        W27246   7.746  17.555   8.391
26766W        W27247   8.877  17.038   8.639
26767W        W27248   9.135  15.539   8.037
26768W        W27249  10.195  15.790  10.407
26769W        W27250  10.908  17.446   8.541
26770W        W27251   9.535  16.738  10.025
26771W        W27252   7.301  16.289   8.231
26772W        W27253   8.412  16.704   9.804
26773W        W27254   9.616  15.968   8.182
26774W        W27255   9.493  16.458   8.286
26775W        W27256   7.836  15.878   9.760
26776W        W27257   7.821  15.754  10.682
26777W        W27258   7.711  14.671   8.841
26778W        W27259   9.479  15.018   9.402
26779W        W27260   9.127  15.203  10.565
26780W        W27261   9.482  15.352   7.743
26781W        W27262  10.665  17.745  10.497
26782W        W27263   9.632  14.826  10.536
26783W        W27264  10.651  17.127  10.658
26784W        W27265  10.081  15.294  10.254
26785W        W27266   9.881  15.232   8.524
26786W        W27267  10.274  16.366  10.928
26787W        W27268   8.241  14.943  10.564
26788W        W27269  10.293  15.427   8.245
26789W        W27270  10.660  15.909   8.190
26790W        W27271   8.329  14.662   7.896
26791W        W27272  10.650  15.196   8.931
26792W        W27273  10.800  17.445   7.376
26793W        W27274   7.707  16.648   9.078
26794W        W27275   9.624  15.235   7.308
26795W        W27276  10.758  17.567   9.028
26796W        W27277  10.797  14.761   9.778
26797W        W27278   9.242  15.973  10.332
26798W        W27279   9.335  17.312   8.035
26799W        W27280   9.735  16.606  10.775
26800W        W27281   9.409  14.583   9.084
26801W        W27282   8.021  15.486   9.147
26802W        W27283   7.575  16.686   9.921
26803W        W27284  10.628  15.476   9.499
26804W        W27285  10.608  16.882   7.471
26805W        W27286   9.043  16.365   8.532
26806W        W27287  10.895  14.876  10.273
26807W        W27288   9.044  16.711   9.867
26808W        W27289   9.261  15.597   9.312
26809W        W27290  10.113  15.895   8.150
26810W        W27291  10.400  15.628   7.792
26811W        W27292  10.209  17.668   8.181
26812W        W27293  10.043  17.271   8.977
26813W        W27294   9.939  16.350   7.955
26814W        W27295   9.372  16.560   8.941
26815W        W27296  10.253  16.348   9.008
26816W        W27297   7.628  15.363   9.432
26817W        W27298  10.406  16.415  10.259
26818W        W27299   8.687  17.477   8.807
26819W        W27300   9.688  15.340   9.895
26820W        W27301  10.592  15.002   8.422
26821W        W27302  10.383  16.321   9.723
26822W        W27303  10.226  15.437   8.779
26823W        W27304  10.637  15.588  10.556
26824W        W27305   9.522  17.287   8.774
26825W        W27306   7.893  15.058   7.645
26826W        W27307   8.997  14.712   9.455
26827W        W27308   8.399  16.298   8.054
26828W        W27309   9.053  16.927  10.367
26829W        W27310   8.883  15.285   8.357
26830W        W27311  10.239  14.882   8.785
26831W        W27312   8.767  16.849   9.414
26832W        W27313  10.537  17.572   9.540
26833W        W27314   8.231  15.075   8.309
26834W        W27315   8.753  17.372   9.269
26835W        W27316   8.236  15.303   7.334
26836W        W27317   9.037  15.912   9.728
26837W        W27318   9.885  14.778   9.598
26838W        W27319   7.305  16.621   9.483
26839W        W27320   9.009  16.439   7.641
26840W        W27321   8.277  14.754   7.411
26841W        W27322   9.015  15.835   8.462
26842W        W27323   9.985  14.811  10.161
26843W        W27324   8.573  16.823  10.270
26844W        W27325   9.377  16.605  10.487
26845W        W27326   9.994  16.635  10.380
26846W        W27327   9.278  14.775  10.885
26847W        W27328   8.500  15.391   9.278
26848W        W27329   7.926  15.347   8.676
26849W        W27330   9.044  17.389  10.477
26850W        W27331   8.079  16.874   7.836
26851W        W27332   9.759  16.259   9.057
26852W        W27333  10.039  16.058   9.456
26853W        W27334   9.244  16.732   9.390
26854W        W27335   9.714  17.106   7.522
26855W        W27336   9.386  15.127   8.850
26856W        W27337  10.865  15.405   8.118
26857W        W27338   7.776  17.220   9.681
26858W        W27339   9.242  15.336   9.719
26859W        W27340   8.605  17.359   7.568
26860W        W27341   9.485  16.394   7.768
26861W        W27342   8.328  15.585   8.285
26862W        W27343   9.160  15.495   7.337
26863W        W27344   9.744  17.060  10.515
26864W        W27345  10.097  14.966   8.132
26865W        W27346   7.427  14.814   7.580
26866W        W27347   8.713  17.133   9.870
26867W        W27348   8.512  17.049   8.962
26868W        W27349   8.254  17.001   7.360
26869W        W27350   7.495  17.242   8.128
26870W        W27351   7.999  16.312  10.570
26871W        W27352   8.703  14.872  10.756
26872W        W27353   9.412  15.014  10.112
26873W        W27354   8.607  14.782   8.393
26874W        W27355   9.666  14.859   7.898
26875W        W27356   7.611  14.791   9.475
26876W        W27357   7.659  15.754   8.845
26877W        W27358  10.348  14.862   9.251
26878W        W27359   7.770  15.360   8.065
26879W        W27360  10.341  15.048   9.681
26880W        W27361  10.737  16.251   7.366
26881W        W27362   8.029  15.009   9.185
26882W        W27363   9.143  15.581  10.125
26883W        W27364   7.291  15.271   7.603
26884W        W27365   8.077  16.660  10.164
26885W        W27366   9.435  16.058   9.343
26886W        W27367   7.448  16.644   7.336
26887W        W27368   8.183  17.055  10.462
26888W        W27369   7.704  16.222  10.093
26889W        W27370   8.695  16.327   9.887
26890W        W27371  10.463  14.686  10.149
26891W        W27372  10.861  16.296  10.140
26892W        W27373  10.849  16.496   7.826
26893W        W27374   9.712  16.828   7.925
26894W        W27375   9.363  16.118  10.762
26895W        W27376   7.693  17.085  10.802
26896W        W27377  10.899  15.007  10.754
26897W        W27378  10.617  15.935   9.375
26898W        W27379   8.780  14.694   7.579
26899W        W27380   8.088  15.386  10.408
26900W        W27381   8.522  17.380  10.270
26901W        W27382  10.648  15.371  10.068
26902W        W27383  10.098  16.649   9.403
26903W        W27384   8.348  15.065  10.070
26904W        W27385   8.817  16.134  10.827
26905W        W27386   8.320  17.313   8.021
26906W        W27387  10.075  16.811   8.285
26907W        W27388   7.843  15.437  10.009
26908W        W27389   9.172  17.499   8.473
26909W        W27390  10.922  16.059   8.654
26910W        W27391   9.144  14.692  10.373
26911W        W27392   9.924  17.397   9.452
26912W        W27393  10.227  17.741   9.160
26913W        W27394   9.446  17.543   7.588
26914W        W27395   7.456  17.435  10.430
26915W        W27396   8.199  15.427   9.668
26916W        W27397   8.169  14.775   8.778
26917W        W27398   9.790  15.617   9.470
26918W        W27399   8.588  16.788   7.670
26919W        W27400  10.586  16.730   9.169
26920W        W27401   7.913  17.488  10.592
26921W        W27402   8.399  15.190   8.834
26922W        W27403   8.168  16.683   8.924
26923W        W27404   9.707  16.378   9.639
26924W        W27405   7.556  16.176   7.554
26925W        W27406  10.527  15.158   7.870
26926W        W27407   8.666  14.677  10.273
26927W        W27408  10.372  17.479   8.731
26928W        W27409  10.401  16.035   8.636
26929W        W27410   8.518  15.708   8.852
26930W        W27411   8.763  15.970  10.176
26931W        W27412   9.874  17.123  10.039
26932W        W27413   8.524  15.577  10.151
26933W        W27414   7.932  17.363   7.531
26934W        W27415  10.449  17.121   8.341
26935W        W27416   8.053  15.913  10.227
26936W        W27417  10.826  15.843   7.708
26937W        W27418   8.571  16.900   8.179
26938W        W27419   9.670  16.282  10.260
26939W        W27420   9.561  15.910   9.804
26940W        W27421   8.121  16.282   9.833
26941W        W27422  10.122  14.804  10.656
26942W        W27423   7.786  14.954  10.243
26943W        W27424   8.125  15.977   9.296
26944W        W27425   8.494  15.791   7.418
26945W        W27426   7.297  17.550   9.963
26946W        W27427   8.882  16.259   9.406
26947W        W27428   8.705  15.284   7.511
26948W        W27429   7.840  16.100   8.292
26949W        W27430  10.406  16.178   7.837
26950W        W27431   9.937  17.303   8.486
26951W        W27432   7.535  16.227  10.663
26952W        W27433  10.501  14.691   7.959
26953W        W27434  10.021  17.166   7.970
26954W        W27435   8.923  16.224   8.055
26955W        W27436  10.110  15.028   7.578
26956W        W27437  10.175  15.635   9.764
26957W        W27438   7.884  16.228   8.971
26958W        W27439   8.178  17.167   8.620
26959W        W27440   9.941  15.787   8.585
26960W        W27441   8.964  15.166   9.281
26961W        W27442  10.926  17.077   9.792
26962W        W27443  10.844  15.064   9.353
26963W        W27444   7.807  14.698  10.818
26964W        W27445   8.926  17.551  10.920
26965W        W27446  10.681  16.519   8.710
26966W        W27447  10.035  16.696   7.590
26967W        W27448  10.187  16.939  10.839
26968W        W27449   9.002  14.649   8.119
26969W        W27450   9.715  15.518   8.978
26970W        W27451   7.401  17.105   9.310
26971W        W27452   8.654  15.067   7.951
26972W        W27453   8.458  16.551  10.800
26973W        W27454   9.452  15.532   8.514
26974W        W27455   9.657  16.942   9.636
26975W        W27456   7.811  17.547  10.071
26976W        W27457   8.402  17.530  10.794
26977W        W27458   8.253  15.327   7.808
26978W        W27459   9.770  15.469   8.133
26979W        W27460   9.728  17.577  10.370
26980W        W27461   8.413  16.169   8.969
26981W        W27462   7.676  16.656  10.431
26982W        W27463   9.671  16.918   9.119
26983W        W27464   8.107  16.567   8.361
26984W        W27465   8.478  17.574   9.756
26985W        W27466   8.856  14.993   8.797
26986W        W27467   7.467  16.977   7.727
26987W        W27468   8.986  15.928   7.597
26988W        W27469   7.632  16.477   8.616
26989W        W27470   8.922  15.119  10.080
26990W        W27471  10.594  14.828   7.507
26991W        W27472  10.687  16.574  10.606
26992W        W27473  10.899  16.925  10.280
26993W        W27474  10.307  17.723  10.891
26994W        W27475  10.905  16.801   8.243
26995W        W27476   9.435  16.068   8.756
26996W        W27477   9.202  14.680   8.646
26997W        W27478   8.261  17.664   8.483
26998W        W27479   8.760  15.405   9.708
26999W        W27480   8.460  14.774   9.177
27000W        W27481   7.523  17.596   7.725
27001W        W27482   9.339  16.960   8.443
27002W        W27483   7.691  16.578   8.018
27003W        W27484   7.576  15.121   9.017
27004W        W27485   9.124  17.086   9.074
27005W        W27486   7.376  14.940   8.094
27006W        W27487  10.040  16.146  10.021
27007W        W27488   9.917  15.532   7.593
27008W        W27489  10.434  17.204   9.241
27009W        W27490   9.095  17.688   9.072
27010W        W27491   9.789  14.695   7.413
27011W        W27492   9.786  15.713  10.789
27012W        W27493   7.769  15.243  10.788
27013W        W27494   7.500  15.843   8.121
27014W        W27495   9.954  16.159  10.663
27015W        W27496   8.297  16.440   9.372
27016W        W27497   9.771  14.726   8.492
27017W        W27498  10.116  17.619   9.932
27018W        W27499   9.719  16.748   8.637
27019W        W27500   9.181  14.973   7.708
27020W        W27501  10.862  14.601   8.430
27021W        W27502   8.550  16.236   7.593
27022W        W27503  10.716  15.573   8.583
27023W        W27504   9.408  16.743   7.460
27024W        W27505  10.344  16.943  10.208
27025W        W27506   9.998  17.644   7.675
27026W        W27507   8.613  15.319  10.581
27027W        W27508   8.433  15.903   9.822
27028W        W27509  10.525  17.398  10.099
27029W        W27510   9.625  15.348  10.476
27030W        W27511   7.469  15.819  10.253
27031W        W27512   9.229  16.296   9.979
27032W        W27513   7.586  17.054   8.636
27033W        W27514   7.733  16.351   9.526
27034W        W27515  10.050  16.637   9.876
27035W        W27516   9.718  15.756  10.240
27036W        W27517   8.997  17.530   9.968
27037W        W27518   9.337  17.128  10.793
27038W        W27519   7.942  17.081   9.132
27039W        W27520  10.288  16.840   8.777
27040W        W27521   7.907  17.635   9.398
27041W        W27522   8.928  15.687  10.608
27042W        W27523   8.687  17.108  10.757
27043W        W27524   8.813  17.346   8.134
27044W        W27525   8.034  16.086   7.393
27045W        W27526   7.749  17.065  13.815
27046W        W27527  10.454  16.795  11.585
27047W        W27528   8.585  16.023  12.121
27048W        W27529   8.100  15.871  12.285
27049W        W27530   9.091  16.686  11.719
27050W        W27531   7.415  15.339  14.037
27051W        W27532   8.177  14.619  13.839
27052W        W27533   9.871  15.007  12.726
27053W        W27534   9.520  15.878  11.296
27054W        W27535  10.090  15.312  14.387
27055W        W27536   7.456  15.104  13.512
27056W        W27537   7.555  17.723  14.533
27057W        W27538   9.077  17.113  11.265
27058W        W27539   7.509  15.896  12.958
27059W        W27540   8.402  15.787  14.195
27060W        W27541  10.861  15.646  12.694
27061W        W27542  10.625  16.689  13.553
27062W        W27543   8.933  16.022  12.580
27063W        W27544   9.479  17.361  12.949
27064W        W27545   7.979  16.795  13.181
27065W        W27546   7.338  16.323  12.752
27066W        W27547   8.374  16.295  13.944
27067W        W27548  10.645  16.078  14.198
27068W        W27549   8.261  17.522  12.643
27069W        W27550   9.382  17.211  13.777
27070W        W27551   8.602  15.851  13.002
27071W        W27552   8.894  16.635  12.645
27072W        W27553   9.891  17.408  14.493
27073W        W27554   8.970  16.728  14.503
27074W        W27555   8.951  16.444  13.981
27075W        W27556  10.192  17.370  14.102
27076W        W27557   7.773  14.952  12.100
27077W        W27558   8.300  17.210  13.099
27078W        W27559  10.763  16.993  12.389
27079W        W27560  10.176  15.393  12.956
27080W        W27561  10.461  15.346  11.051
27081W        W27562  10.926  16.147  13.357
27082W        W27563  10.667  17.320  11.548
27083W        W27564   7.986  14.906  13.404
27084W        W27565  10.609  15.924  13.679
27085W        W27566  10.014  16.346  12.138
27086W        W27567   9.980  16.034  11.165
27087W        W27568   9.188  17.178  13.305
27088W        W27569   8.994  15.508  12.504
27089W        W27570   9.594  17.595  13.498
27090W        W27571  10.465  16.386  11.920
27091W        W27572   9.367  15.044  11.936
27092W        W27573   8.024  17.738  11.619
27093W        W27574  10.181  15.844  12.692
27094W        W27575   7.639  17.461  12.607
27095W        W27576  10.372  15.837  10.941
27096W        W27577   7.395  17.595  13.105
27097W        W27578   8.186  17.167  13.585
27098W        W27579   8.559  16.527  12.204
27099W        W27580   8.581  14.932  13.297
27100W        W27581  10.810  14.694  12.594
27101W        W27582   8.029  16.566  11.062
27102W        W27583   7.684  15.599  11.241
27103W        W27584   7.746  17.555  12.035
27104W        W27585   8.877  17.038  12.283
27105W        W27586   9.135  15.539  11.681
27106W        W27587  10.195  15.790  14.051
27107W        W27588  10.908  17.446  12.185
27108W        W27589   9.535  16.738  13.669
27109W        W27590   7.301  16.289  11.875
27110W        W27591   8.412  16.704  13.448
27111W        W27592   9.616  15.968  11.826
27112W        W27593   9.493  16.458  11.930
27113W        W27594   7.836  15.878  13.404
27114W        W27595   7.821  15.754  14.326
27115W        W27596   7.711  14.671  12.485
27116W        W27597   9.479  15.018  13.046
27117W        W27598   9.127  15.203  14.209
27118W        W27599   9.482  15.352  11.387
27119W        W27600  10.665  17.745  14.141
27120W        W27601   9.632  14.826  14.180
27121W        W27602  10.651  17.127  14.302
27122W        W27603  10.081  15.294  13.898
27123W        W27604   9.881  15.232  12.168
27124W        W27605  10.274  16.366  14.572
27125W        W27606   8.672  15.659  11.544
27126W        W27607   8.241  14.943  14.208
27127W        W27608  10.293  15.427  11.889
27128W        W27609  10.660  15.909  11.834
27129W        W27610   8.329  14.662  11.540
27130W        W27611  10.650  15.196  12.575
27131W        W27612  10.800  17.445  11.020
27132W        W27613   7.707  16.648  12.722
27133W        W27614   9.624  15.235  10.952
27134W        W27615  10.758  17.567  12.672
27135W        W27616  10.797  14.761  13.422
27136W        W27617   9.242  15.973  13.976
27137W        W27618   9.335  17.312  11.679
27138W        W27619   9.735  16.606  14.419
27139W        W27620   9.409  14.583  12.728
27140W        W27621   8.021  15.486  12.791
27141W        W27622   7.575  16.686  13.565
27142W        W27623  10.628  15.476  13.143
27143W        W27624   9.043  16.365  12.176
27144W        W27625  10.895  14.876  13.917
27145W        W27626   9.044  16.711  13.511
27146W        W27627   9.261  15.597  12.956
27147W        W27628  10.113  15.895  11.794
27148W        W27629  10.400  15.628  11.436
27149W        W27630  10.209  17.668  11.825
27150W        W27631  10.043  17.271  12.621
27151W        W27632   9.939  16.350  11.599
27152W        W27633   9.372  16.560  12.585
27153W        W27634  10.253  16.348  12.652
27154W        W27635   7.628  15.363  13.076
27155W        W27636  10.406  16.415  13.903
27156W        W27637   8.687  17.477  12.451
27157W        W27638   9.688  15.340  13.539
27158W        W27639  10.592  15.002  12.066
27159W        W27640  10.383  16.321  13.367
27160W        W27641   7.366  15.642  13.405
27161W        W27642  10.226  15.437  12.423
27162W        W27643  10.637  15.588  14.200
27163W        W27644   9.522  17.287  12.418
27164W        W27645   7.893  15.058  11.289
27165W        W27646   8.997  14.712  13.099
27166W        W27647   8.399  16.298  11.698
27167W        W27648   9.053  16.927  14.011
27168W        W27649   8.883  15.285  12.001
27169W        W27650  10.239  14.882  12.429
27170W        W27651   8.767  16.849  13.058
27171W        W27652  10.537  17.572  13.184
27172W        W27653   8.231  15.075  11.953
27173W        W27654   8.753  17.372  12.913
27174W        W27655   8.236  15.303  10.978
27175W        W27656   9.037  15.912  13.372
27176W        W27657   9.885  14.778  13.242
27177W        W27658   7.305  16.621  13.127
27178W        W27659   9.009  16.439  11.285
27179W        W27660   8.277  14.754  11.055
27180W        W27661   9.015  15.835  12.106
27181W        W27662   9.985  14.811  13.805
27182W        W27663   8.573  16.823  13.914
27183W        W27664   9.377  16.605  14.131
27184W        W27665   9.994  16.635  14.024
27185W        W27666   9.278  14.775  14.529
27186W        W27667   8.500  15.391  12.922
27187W        W27668   7.926  15.347  12.320
27188W        W27669   9.044  17.389  14.121
27189W        W27670   8.079  16.874  11.480
27190W        W27671   9.759  16.259  12.701
27191W        W27672  10.039  16.058  13.100
27192W        W27673   9.244  16.732  13.034
27193W        W27674   9.714  17.106  11.166
27194W        W27675   9.386  15.127  12.494
27195W        W27676  10.865  15.405  11.762
27196W        W27677   7.776  17.220  13.325
27197W        W27678   9.242  15.336  13.363
27198W        W27679   8.605  17.359  11.212
27199W        W27680   9.485  16.394  11.412
27200W        W27681   8.328  15.585  11.929
27201W        W27682   9.160  15.495  10.981
27202W        W27683   9.744  17.060  14.159
27203W        W27684  10.097  14.966  11.776
27204W        W27685   7.427  14.814  11.224
27205W        W27686   8.713  17.133  13.514
27206W        W27687   8.512  17.049  12.606
27207W        W27688   8.254  17.001  11.004
27208W        W27689   7.495  17.242  11.772
27209W        W27690   7.999  16.312  14.214
27210W        W27691   8.703  14.872  14.400
27211W        W27692   9.412  15.014  13.756
27212W        W27693   8.607  14.782  12.037
27213W        W27694   9.666  14.859  11.542
27214W        W27695   7.611  14.791  13.119
27215W        W27696   7.659  15.754  12.489
27216W        W27697  10.348  14.862  12.895
27217W        W27698   7.770  15.360  11.709
27218W        W27699  10.341  15.048  13.325
27219W        W27700  10.737  16.251  11.010
27220W        W27701   8.029  15.009  12.829
27221W        W27702   9.143  15.581  13.769
27222W        W27703   7.291  15.271  11.247
27223W        W27704   8.077  16.660  13.808
27224W        W27705   9.435  16.058  12.987
27225W        W27706   7.448  16.644  10.980
27226W        W27707   8.183  17.055  14.106
27227W        W27708   7.704  16.222  13.737
27228W        W27709   8.695  16.327  13.531
27229W        W27710  10.463  14.686  13.793
27230W        W27711  10.861  16.296  13.784
27231W        W27712  10.849  16.496  11.470
27232W        W27713   9.712  16.828  11.569
27233W        W27714   9.363  16.118  14.406
27234W        W27715   7.693  17.085  14.446
27235W        W27716  10.899  15.007  14.398
27236W        W27717  10.617  15.935  13.019
27237W        W27718   8.780  14.694  11.223
27238W        W27719  10.319  17.293  11.166
27239W        W27720   8.088  15.386  14.052
27240W        W27721   8.522  17.380  13.914
27241W        W27722  10.648  15.371  13.712
27242W        W27723  10.098  16.649  13.047
27243W        W27724   8.348  15.065  13.714
27244W        W27725   8.817  16.134  14.471
27245W        W27726   8.320  17.313  11.665
27246W        W27727  10.075  16.811  11.929
27247W        W27728   7.843  15.437  13.653
27248W        W27729   9.172  17.499  12.117
27249W        W27730  10.922  16.059  12.298
27250W        W27731   9.144  14.692  14.017
27251W        W27732   9.924  17.397  13.096
27252W        W27733  10.227  17.741  12.804
27253W        W27734   9.446  17.543  11.232
27254W        W27735   7.456  17.435  14.074
27255W        W27736   8.199  15.427  13.312
27256W        W27737   8.169  14.775  12.422
27257W        W27738   9.790  15.617  13.114
27258W        W27739   8.588  16.788  11.314
27259W        W27740   7.913  17.488  14.236
27260W        W27741   8.399  15.190  12.478
27261W        W27742   8.168  16.683  12.568
27262W        W27743   9.707  16.378  13.283
27263W        W27744   7.556  16.176  11.198
27264W        W27745  10.527  15.158  11.514
27265W        W27746   8.666  14.677  13.917
27266W        W27747  10.372  17.479  12.375
27267W        W27748  10.401  16.035  12.280
27268W        W27749   8.518  15.708  12.496
27269W        W27750   8.763  15.970  13.820
27270W        W27751   9.874  17.123  13.683
27271W        W27752   8.524  15.577  13.795
27272W        W27753   7.932  17.363  11.175
27273W        W27754  10.449  17.121  11.985
27274W        W27755   8.053  15.913  13.871
27275W        W27756  10.826  15.843  11.352
27276W        W27757   8.571  16.900  11.823
27277W        W27758   9.670  16.282  13.904
27278W        W27759   9.561  15.910  13.448
27279W        W27760   8.121  16.282  13.477
27280W        W27761  10.122  14.804  14.300
27281W        W27762   7.786  14.954  13.887
27282W        W27763   8.125  15.977  12.940
27283W        W27764   8.494  15.791  11.062
27284W        W27765   7.297  17.550  13.607
27285W        W27766   8.882  16.259  13.050
27286W        W27767   8.705  15.284  11.155
27287W        W27768   7.840  16.100  11.936
27288W        W27769  10.406  16.178  11.481
27289W        W27770  10.501  15.094  14.167
27290W        W27771   9.937  17.303  12.130
27291W        W27772   7.535  16.227  14.307
27292W        W27773  10.501  14.691  11.603
27293W        W27774  10.021  17.166  11.614
27294W        W27775   8.923  16.224  11.699
27295W        W27776  10.110  15.028  11.222
27296W        W27777  10.175  15.635  13.408
27297W        W27778   7.884  16.228  12.615
27298W        W27779   9.941  15.787  12.229
27299W        W27780   8.964  15.166  12.925
27300W        W27781  10.926  17.077  13.436
27301W        W27782  10.844  15.064  12.997
27302W        W27783   7.892  17.081  11.909
27303W        W27784   7.807  14.698  14.462
27304W        W27785   8.926  17.551  14.564
27305W        W27786  10.681  16.519  12.354
27306W        W27787  10.035  16.696  11.234
27307W        W27788  10.187  16.939  14.483
27308W        W27789   9.002  14.649  11.763
27309W        W27790   9.715  15.518  12.622
27310W        W27791   7.401  17.105  12.954
27311W        W27792   8.654  15.067  11.595
27312W        W27793   8.458  16.551  14.444
27313W        W27794   9.452  15.532  12.158
27314W        W27795   9.657  16.942  13.280
27315W        W27796   7.811  17.547  13.715
27316W        W27797   8.402  17.530  14.438
27317W        W27798   8.253  15.327  11.452
27318W        W27799   9.770  15.469  11.777
27319W        W27800   9.728  17.577  14.014
27320W        W27801   8.413  16.169  12.613
27321W        W27802   7.676  16.656  14.075
27322W        W27803   9.671  16.918  12.763
27323W        W27804   8.107  16.567  12.005
27324W        W27805   8.478  17.574  13.400
27325W        W27806   8.856  14.993  12.441
27326W        W27807   7.467  16.977  11.371
27327W        W27808   8.986  15.928  11.241
27328W        W27809   7.632  16.477  12.260
27329W        W27810   8.922  15.119  13.724
27330W        W27811  10.594  14.828  11.151
27331W        W27812  10.687  16.574  14.250
27332W        W27813  10.899  16.925  13.924
27333W        W27814  10.307  17.723  14.535
27334W        W27815  10.905  16.801  11.887
27335W        W27816   9.435  16.068  12.400
27336W        W27817   9.202  14.680  12.290
27337W        W27818   8.261  17.664  12.127
27338W        W27819   8.460  14.774  12.821
27339W        W27820   7.523  17.596  11.369
27340W        W27821   9.339  16.960  12.087
27341W        W27822   7.691  16.578  11.662
27342W        W27823   7.576  15.121  12.661
27343W        W27824   9.124  17.086  12.718
27344W        W27825   7.376  14.940  11.738
27345W        W27826  10.040  16.146  13.665
27346W        W27827   9.917  15.532  11.237
27347W        W27828  10.434  17.204  12.885
27348W        W27829   9.095  17.688  12.716
27349W        W27830   9.789  14.695  11.057
27350W        W27831   9.786  15.713  14.433
27351W        W27832   7.769  15.243  14.432
27352W        W27833   7.500  15.843  11.765
27353W        W27834   8.191  15.832  11.490
27354W        W27835   9.954  16.159  14.307
27355W        W27836   8.297  16.440  13.016
27356W        W27837   9.771  14.726  12.136
27357W        W27838  10.116  17.619  13.576
27358W        W27839   9.719  16.748  12.281
27359W        W27840   9.181  14.973  11.352
27360W        W27841  10.862  14.601  12.074
27361W        W27842   8.550  16.236  11.237
27362W        W27843  10.716  15.573  12.227
27363W        W27844   9.408  16.743  11.104
27364W        W27845  10.344  16.943  13.852
27365W        W27846   9.998  17.644  11.319
27366W        W27847   8.613  15.319  14.225
27367W        W27848   8.433  15.903  13.466
27368W        W27849  10.525  17.398  13.743
27369W        W27850   9.625  15.348  14.120
27370W        W27851   7.469  15.819  13.897
27371W        W27852   7.586  17.054  12.280
27372W        W27853   7.733  16.351  13.170
27373W        W27854  10.050  16.637  13.520
27374W        W27855   9.718  15.756  13.884
27375W        W27856   8.997  17.530  13.612
27376W        W27857  10.287  17.056  13.300
27377W        W27858   9.337  17.128  14.437
27378W        W27859   7.942  17.081  12.776
27379W        W27860  10.288  16.840  12.421
27380W        W27861   7.907  17.635  13.042
27381W        W27862   8.928  15.687  14.252
27382W        W27863   8.687  17.108  14.401
27383W        W27864   8.813  17.346  11.778
27384W        W27865   8.034  16.086  11.037
27385W        W27866   7.749  17.065  17.459
27386W        W27867  10.454  16.795  15.229
27387W        W27868   8.585  16.023  15.765
27388W        W27869   8.100  15.871  15.929
27389W        W27870   9.091  16.686  15.363
27390W        W27871   7.415  15.339  17.681
27391W        W27872   8.177  14.619  17.483
27392W        W27873   9.871  15.007  16.370
27393W        W27874   9.520  15.878  14.940
27394W        W27875   7.456  15.104  17.156
27395W        W27876   9.077  17.113  14.909
27396W        W27877   7.509  15.896  16.602
27397W        W27878  10.861  15.646  16.338
27398W        W27879  10.625  16.689  17.197
27399W        W27880   9.479  17.361  16.593
27400W        W27881   7.979  16.795  16.825
27401W        W27882   7.338  16.323  16.396
27402W        W27883   8.374  16.295  17.588
27403W        W27884   8.261  17.522  16.287
27404W        W27885   9.382  17.211  17.421
27405W        W27886   8.602  15.851  16.646
27406W        W27887   8.894  16.635  16.289
27407W        W27888   8.951  16.444  17.625
27408W        W27889  10.192  17.370  17.746
27409W        W27890   7.773  14.952  15.744
27410W        W27891   8.300  17.210  16.743
27411W        W27892  10.763  16.993  16.033
27412W        W27893  10.176  15.393  16.600
27413W        W27894  10.461  15.346  14.695
27414W        W27895  10.926  16.147  17.001
27415W        W27896  10.667  17.320  15.192
27416W        W27897   7.986  14.906  17.048
27417W        W27898  10.609  15.924  17.323
27418W        W27899  10.014  16.346  15.782
27419W        W27900   9.980  16.034  14.809
27420W        W27901   9.188  17.178  16.949
27421W        W27902   8.994  15.508  16.148
27422W        W27903   9.594  17.595  17.142
27423W        W27904  10.465  16.386  15.564
27424W        W27905   9.367  15.044  15.580
27425W        W27906   8.024  17.738  15.263
27426W        W27907   7.395  15.237  15.862
27427W        W27908  10.181  15.844  16.336
27428W        W27909   7.639  17.461  16.251
27429W        W27910  10.372  15.837  14.585
27430W        W27911   7.395  17.595  16.749
27431W        W27912   8.186  17.167  17.229
27432W        W27913   8.559  16.527  15.848
27433W        W27914   8.581  14.932  16.941
27434W        W27915  10.810  14.694  16.238
27435W        W27916   8.029  16.566  14.706
27436W        W27917   7.684  15.599  14.885
27437W        W27918   7.746  17.555  15.679
27438W        W27919   8.877  17.038  15.927
27439W        W27920   9.135  15.539  15.325
27440W        W27921  10.908  17.446  15.829
27441W        W27922   9.535  16.738  17.313
27442W        W27923   7.301  16.289  15.519
27443W        W27924   8.412  16.704  17.092
27444W        W27925   9.616  15.968  15.470
27445W        W27926   9.493  16.458  15.574
27446W        W27927   7.836  15.878  17.048
27447W        W27928   7.711  14.671  16.129
27448W        W27929   9.479  15.018  16.690
27449W        W27930   9.482  15.352  15.031
27450W        W27931  10.665  17.745  17.785
27451W        W27932   9.632  14.826  17.824
27452W        W27933   9.881  15.232  15.812
27453W        W27934   8.672  15.659  15.188
27454W        W27935  10.293  15.427  15.533
27455W        W27936  10.660  15.909  15.478
27456W        W27937   8.329  14.662  15.184
27457W        W27938  10.650  15.196  16.219
27458W        W27939  10.800  17.445  14.664
27459W        W27940   7.707  16.648  16.366
27460W        W27941   9.624  15.235  14.596
27461W        W27942  10.758  17.567  16.316
27462W        W27943  10.797  14.761  17.066
27463W        W27944   9.242  15.973  17.620
27464W        W27945   9.335  17.312  15.323
27465W        W27946   9.409  14.583  16.372
27466W        W27947   8.021  15.486  16.435
27467W        W27948   7.575  16.686  17.209
27468W        W27949  10.628  15.476  16.787
27469W        W27950  10.608  16.882  14.759
27470W        W27951   9.043  16.365  15.820
27471W        W27952  10.895  14.876  17.561
27472W        W27953   9.044  16.711  17.155
27473W        W27954   9.261  15.597  16.600
27474W        W27955  10.113  15.895  15.438
27475W        W27956  10.400  15.628  15.080
27476W        W27957  10.209  17.668  15.469
27477W        W27958  10.043  17.271  16.265
27478W        W27959   9.939  16.350  15.243
27479W        W27960   9.372  16.560  16.229
27480W        W27961  10.253  16.348  16.296
27481W        W27962   7.628  15.363  16.720
27482W        W27963  10.406  16.415  17.547
27483W        W27964   8.687  17.477  16.095
27484W        W27965   9.688  15.340  17.183
27485W        W27966  10.592  15.002  15.710
27486W        W27967  10.383  16.321  17.011
27487W        W27968   7.366  15.642  17.049
27488W        W27969  10.226  15.437  16.067
27489W        W27970   9.522  17.287  16.062
27490W        W27971   7.893  15.058  14.933
27491W        W27972   8.997  14.712  16.743
27492W        W27973   8.399  16.298  15.342
27493W        W27974   9.053  16.927  17.655
27494W        W27975   8.883  15.285  15.645
27495W        W27976  10.239  14.882  16.073
27496W        W27977   8.767  16.849  16.702
27497W        W27978  10.537  17.572  16.828
27498W        W27979   8.236  15.303  14.622
27499W        W27980   9.037  15.912  17.016
27500W        W27981   9.885  14.778  16.886
27501W        W27982   7.305  16.621  16.771
27502W        W27983   9.009  16.439  14.929
27503W        W27984   8.277  14.754  14.699
27504W        W27985   9.015  15.835  15.750
27505W        W27986   9.985  14.811  17.449
27506W        W27987   8.573  16.823  17.558
27507W        W27988   9.994  16.635  17.668
27508W        W27989   8.500  15.391  16.566
27509W        W27990   9.044  17.389  17.765
27510W        W27991   8.079  16.874  15.124
27511W        W27992   9.759  16.259  16.345
27512W        W27993  10.039  16.058  16.744
27513W        W27994   9.244  16.732  16.678
27514W        W27995   9.714  17.106  14.810
27515W        W27996   9.386  15.127  16.138
27516W        W27997  10.865  15.405  15.406
27517W        W27998   7.776  17.220  16.969
27518W        W27999   9.242  15.336  17.007
27519W        W28000   8.605  17.359  14.856
27520W        W28001   9.485  16.394  15.056
27521W        W28002   9.160  15.495  14.625
27522W        W28003  10.097  14.966  15.420
27523W        W28004   7.427  14.814  14.868
27524W        W28005   8.713  17.133  17.158
27525W        W28006   8.512  17.049  16.250
27526W        W28007   8.254  17.001  14.648
27527W        W28008   7.495  17.242  15.416
27528W        W28009   9.412  15.014  17.400
27529W        W28010   8.607  14.782  15.681
27530W        W28011   9.666  14.859  15.186
27531W        W28012   7.611  14.791  16.763
27532W        W28013   7.659  15.754  16.133
27533W        W28014  10.348  14.862  16.539
27534W        W28015   7.770  15.360  15.353
27535W        W28016  10.341  15.048  16.969
27536W        W28017  10.737  16.251  14.654
27537W        W28018   8.029  15.009  16.473
27538W        W28019   9.143  15.581  17.413
27539W        W28020   7.291  15.271  14.891
27540W        W28021   8.077  16.660  17.452
27541W        W28022   9.435  16.058  16.631
27542W        W28023   7.448  16.644  14.624
27543W        W28024   7.704  16.222  17.381
27544W        W28025   8.695  16.327  17.175
27545W        W28026  10.463  14.686  17.437
27546W        W28027  10.861  16.296  17.428
27547W        W28028  10.849  16.496  15.114
27548W        W28029   9.712  16.828  15.213
27549W        W28030  10.617  15.935  16.663
27550W        W28031   8.780  14.694  14.867
27551W        W28032  10.319  17.293  14.810
27552W        W28033   8.522  17.380  17.558
27553W        W28034  10.648  15.371  17.356
27554W        W28035  10.098  16.649  16.691
27555W        W28036   8.348  15.065  17.358
27556W        W28037   8.320  17.313  15.309
27557W        W28038  10.075  16.811  15.573
27558W        W28039   7.843  15.437  17.297
27559W        W28040   9.172  17.499  15.761
27560W        W28041  10.922  16.059  15.942
27561W        W28042   9.144  14.692  17.661
27562W        W28043   9.924  17.397  16.740
27563W        W28044  10.227  17.741  16.448
27564W        W28045   9.446  17.543  14.876
27565W        W28046   7.456  17.435  17.718
27566W        W28047   8.199  15.427  16.956
27567W        W28048   8.169  14.775  16.066
27568W        W28049   9.790  15.617  16.758
27569W        W28050   8.588  16.788  14.958
27570W        W28051  10.586  16.730  16.457
27571W        W28052   8.399  15.190  16.122
27572W        W28053   8.168  16.683  16.212
27573W        W28054   9.707  16.378  16.927
27574W        W28055   7.556  16.176  14.842
27575W        W28056  10.527  15.158  15.158
27576W        W28057   8.666  14.677  17.561
27577W        W28058  10.372  17.479  16.019
27578W        W28059  10.401  16.035  15.924
27579W        W28060   8.518  15.708  16.140
27580W        W28061   8.763  15.970  17.464
27581W        W28062   9.874  17.123  17.327
27582W        W28063   8.524  15.577  17.439
27583W        W28064   7.932  17.363  14.819
27584W        W28065  10.449  17.121  15.629
27585W        W28066   8.053  15.913  17.515
27586W        W28067  10.826  15.843  14.996
27587W        W28068   8.571  16.900  15.467
27588W        W28069   9.670  16.282  17.548
27589W        W28070   9.561  15.910  17.092
27590W        W28071   8.121  16.282  17.121
27591W        W28072   7.786  14.954  17.531
27592W        W28073   8.494  15.791  14.706
27593W        W28074   7.297  17.550  17.251
27594W        W28075   8.882  16.259  16.694
27595W        W28076   8.705  15.284  14.799
27596W        W28077   7.840  16.100  15.580
27597W        W28078  10.406  16.178  15.125
27598W        W28079   9.937  17.303  15.774
27599W        W28080  10.501  14.691  15.247
27600W        W28081  10.021  17.166  15.258
27601W        W28082   8.923  16.224  15.343
27602W        W28083  10.110  15.028  14.866
27603W        W28084  10.175  15.635  17.052
27604W        W28085   7.884  16.228  16.259
27605W        W28086   8.178  17.167  15.908
27606W        W28087   9.941  15.787  15.873
27607W        W28088   8.964  15.166  16.569
27608W        W28089  10.926  17.077  17.080
27609W        W28090  10.844  15.064  16.641
27610W        W28091   7.892  17.081  15.553
27611W        W28092  10.681  16.519  15.998
27612W        W28093  10.035  16.696  14.878
27613W        W28094   9.002  14.649  15.407
27614W        W28095   9.715  15.518  16.266
27615W        W28096   7.401  17.105  16.598
27616W        W28097   8.654  15.067  15.239
27617W        W28098   9.452  15.532  15.802
27618W        W28099   9.657  16.942  16.924
27619W        W28100   7.811  17.547  17.359
27620W        W28101   8.253  15.327  15.096
27621W        W28102   9.770  15.469  15.421
27622W        W28103   9.728  17.577  17.658
27623W        W28104   8.413  16.169  16.257
27624W        W28105   9.671  16.918  16.407
27625W        W28106   8.107  16.567  15.649
27626W        W28107   8.478  17.574  17.044
27627W        W28108   8.856  14.993  16.085
27628W        W28109   7.467  16.977  15.015
27629W        W28110   8.986  15.928  14.885
27630W        W28111   7.632  16.477  15.904
27631W        W28112   8.922  15.119  17.368
27632W        W28113  10.594  14.828  14.795
27633W        W28114  10.899  16.925  17.568
27634W        W28115  10.905  16.801  15.531
27635W        W28116   9.435  16.068  16.044
27636W        W28117   9.202  14.680  15.934
27637W        W28118   8.261  17.664  15.771
27638W        W28119   8.760  15.405  16.996
27639W        W28120   8.460  14.774  16.465
27640W        W28121   7.523  17.596  15.013
27641W        W28122   9.339  16.960  15.731
27642W        W28123   7.691  16.578  15.306
27643W        W28124   7.576  15.121  16.305
27644W        W28125   9.124  17.086  16.362
27645W        W28126   7.376  14.940  15.382
27646W        W28127  10.040  16.146  17.309
27647W        W28128  10.434  17.204  16.529
27648W        W28129   9.095  17.688  16.360
27649W        W28130   9.789  14.695  14.701
27650W        W28131   7.500  15.843  15.409
27651W        W28132   8.191  15.832  15.134
27652W        W28133   8.297  16.440  16.660
27653W        W28134   9.771  14.726  15.780
27654W        W28135  10.116  17.619  17.220
27655W        W28136   9.719  16.748  15.925
27656W        W28137   9.181  14.973  14.996
27657W        W28138  10.862  14.601  15.718
27658W        W28139   8.550  16.236  14.881
27659W        W28140  10.716  15.573  15.871
27660W        W28141   9.408  16.743  14.748
27661W        W28142  10.344  16.943  17.496
27662W        W28143   9.998  17.644  14.963
27663W        W28144   8.433  15.903  17.110
27664W        W28145  10.525  17.398  17.387
27665W        W28146   7.469  15.819  17.541
27666W        W28147   9.229  16.296  17.267
27667W        W28148   7.586  17.054  15.924
27668W        W28149   7.733  16.351  16.814
27669W        W28150  10.050  16.637  17.164
27670W        W28151   8.997  17.530  17.256
27671W        W28152  10.287  17.056  16.944
27672W        W28153   7.942  17.081  16.420
27673W        W28154  10.288  16.840  16.065
27674W        W28155   7.907  17.635  16.686
27675W        W28156   8.813  17.346  15.422
27676W        W28157   8.034  16.086  14.681
27677W        W28158  11.017   3.595   3.359
27678W        W28159  11.393   2.488   2.882
27679W        W28160  14.098   2.218   0.652
27680W        W28161  14.228   3.303   2.679
27681W        W28162  12.146   3.294   0.205
27682W        W28163  12.229   1.446   1.188
27683W        W28164  11.744   1.294   1.352
27684W        W28165  12.735   2.109   0.786
27685W        W28166  12.410   3.201   3.141
27686W        W28167  11.059   0.762   3.104
27687W        W28168  11.821   0.042   2.906
27688W        W28169  13.515   0.430   1.793
27689W        W28170  13.164   1.301   0.363
27690W        W28171  13.734   0.735   3.454
27691W        W28172  11.100   0.527   2.579
27692W        W28173  11.199   3.146   3.600
27693W        W28174  12.721   2.536   0.332
27694W        W28175  11.153   1.319   2.025
27695W        W28176  12.046   1.210   3.262
27696W        W28177  14.505   1.069   1.761
27697W        W28178  14.269   2.112   2.620
27698W        W28179  12.577   1.445   1.647
27699W        W28180  13.123   2.784   2.016
27700W        W28181  11.623   2.218   2.248
27701W        W28182  10.982   1.746   1.819
27702W        W28183  12.018   1.718   3.011
27703W        W28184  14.289   1.501   3.265
27704W        W28185  11.905   2.945   1.710
27705W        W28186  13.026   2.634   2.844
27706W        W28187  12.246   1.274   2.069
27707W        W28188  12.538   2.058   1.712
27708W        W28189  13.535   2.831   3.560
27709W        W28190  12.614   2.151   3.570
27710W        W28191  12.595   1.867   3.048
27711W        W28192  11.004   1.258   3.570
27712W        W28193  13.836   2.793   3.169
27713W        W28194  11.417   0.375   1.167
27714W        W28195  11.944   2.633   2.166
27715W        W28196  14.407   2.416   1.456
27716W        W28197  13.820   0.816   2.023
27717W        W28198  14.105   0.769   0.118
27718W        W28199  14.570   1.570   2.424
27719W        W28200  12.537   3.277   2.177
27720W        W28201  14.311   2.743   0.615
27721W        W28202  11.833   3.575   1.045
27722W        W28203  11.630   0.329   2.471
27723W        W28204  14.253   1.347   2.746
27724W        W28205  13.658   1.769   1.205
27725W        W28206  13.624   1.457   0.232
27726W        W28207  12.832   2.601   2.372
27727W        W28208  12.638   0.931   1.571
27728W        W28209  13.238   3.018   2.565
27729W        W28210  14.109   1.809   0.987
27730W        W28211  13.011   0.467   1.003
27731W        W28212  11.668   3.161   0.686
27732W        W28213  11.039   0.660   1.285
27733W        W28214  11.283   2.884   1.674
27734W        W28215  12.624   3.234   0.544
27735W        W28216  14.016   1.260   0.008
27736W        W28217  11.039   3.018   2.172
27737W        W28218  11.830   2.590   2.652
27738W        W28219  12.203   1.950   1.271
27739W        W28220  12.225   0.355   2.364
27740W        W28221  14.454   0.117   1.661
27741W        W28222  11.673   1.989   0.129
27742W        W28223  11.328   1.022   0.308
27743W        W28224  11.390   2.978   1.102
27744W        W28225  12.521   2.461   1.350
27745W        W28226  13.853   3.320   3.064
27746W        W28227  12.779   0.962   0.748
27747W        W28228  14.162   3.360   1.520
27748W        W28229  13.839   1.213   3.118
27749W        W28230  14.552   2.869   1.252
27750W        W28231  13.179   2.161   2.736
27751W        W28232  10.945   1.712   0.942
27752W        W28233  12.056   2.127   2.515
27753W        W28234  13.260   1.391   0.893
27754W        W28235  13.137   1.881   0.997
27755W        W28236  11.480   1.301   2.471
27756W        W28237  11.465   1.177   3.393
27757W        W28238  11.355   0.094   1.552
27758W        W28239  13.123   0.441   2.113
27759W        W28240  12.771   0.626   3.276
27760W        W28241  13.126   0.775   0.454
27761W        W28242  14.309   3.168   3.208
27762W        W28243  13.276   0.249   3.247
27763W        W28244  14.295   2.550   3.369
27764W        W28245  13.725   0.717   2.965
27765W        W28246  13.525   0.655   1.235
27766W        W28247  13.918   1.789   3.639
27767W        W28248  11.658   3.365   1.625
27768W        W28249  12.316   1.082   0.611
27769W        W28250  11.885   0.366   3.275
27770W        W28251  13.937   0.850   0.956
27771W        W28252  14.304   1.332   0.901
27772W        W28253  12.047   3.549   3.372
27773W        W28254  11.973   0.085   0.607
27774W        W28255  14.294   0.619   1.642
27775W        W28256  14.444   2.868   0.087
27776W        W28257  11.351   2.071   1.789
27777W        W28258  13.268   0.658   0.019
27778W        W28259  14.441   0.184   2.489
27779W        W28260  12.886   1.396   3.043
27780W        W28261  12.979   2.735   0.746
27781W        W28262  13.379   2.029   3.486
27782W        W28263  13.053   0.006   1.795
27783W        W28264  11.665   0.909   1.858
27784W        W28265  11.219   2.109   2.632
27785W        W28266  13.078   3.302   1.338
27786W        W28267  14.272   0.899   2.210
27787W        W28268  12.909   3.246   2.977
27788W        W28269  14.252   2.305   0.182
27789W        W28270  12.687   1.788   1.243
27790W        W28271  14.539   0.299   2.984
27791W        W28272  12.688   2.134   2.578
27792W        W28273  12.905   1.020   2.023
27793W        W28274  13.757   1.318   0.861
27794W        W28275  14.044   1.051   0.503
27795W        W28276  13.853   3.091   0.892
27796W        W28277  13.687   2.694   1.688
27797W        W28278  13.583   1.773   0.666
27798W        W28279  13.016   1.983   1.652
27799W        W28280  13.897   1.771   1.719
27800W        W28281  11.272   0.786   2.143
27801W        W28282  14.050   1.838   2.970
27802W        W28283  14.401   3.456   2.116
27803W        W28284  12.331   2.900   1.518
27804W        W28285  13.338   3.433   2.842
27805W        W28286  13.332   0.763   2.606
27806W        W28287  12.539   3.471   2.667
27807W        W28288  14.236   0.425   1.133
27808W        W28289  14.027   1.744   2.434
27809W        W28290  11.010   1.065   2.472
27810W        W28291  13.870   0.860   1.490
27811W        W28292  14.281   1.011   3.267
27812W        W28293  13.166   2.710   1.485
27813W        W28294  12.422   3.301   1.098
27814W        W28295  11.537   0.481   0.356
27815W        W28296  12.641   0.135   2.166
27816W        W28297  12.043   1.721   0.765
27817W        W28298  12.697   2.350   3.078
27818W        W28299  12.527   0.708   1.068
27819W        W28300  13.883   0.305   1.496
27820W        W28301  13.603   3.587   1.824
27821W        W28302  13.015   3.235   2.164
27822W        W28303  12.411   2.272   2.125
27823W        W28304  14.181   2.995   2.251
27824W        W28305  11.875   0.498   1.020
27825W        W28306  12.397   2.795   1.980
27826W        W28307  11.880   0.726   0.045
27827W        W28308  12.681   1.335   2.439
27828W        W28309  13.529   0.201   2.309
27829W        W28310  10.949   2.044   2.194
27830W        W28311  12.653   1.862   0.352
27831W        W28312  11.921   0.177   0.122
27832W        W28313  12.659   1.258   1.173
27833W        W28314  13.629   0.234   2.872
27834W        W28315  12.217   2.246   2.981
27835W        W28316  13.021   2.028   3.198
27836W        W28317  12.922   0.198   3.596
27837W        W28318  11.570   0.770   1.387
27838W        W28319  11.356   3.482   1.063
27839W        W28320  12.688   2.812   3.188
27840W        W28321  11.723   2.297   0.547
27841W        W28322  13.403   1.682   1.768
27842W        W28323  13.683   1.481   2.167
27843W        W28324  12.888   2.155   2.101
27844W        W28325  13.358   2.529   0.233
27845W        W28326  13.030   0.550   1.561
27846W        W28327  14.509   0.828   0.829
27847W        W28328  11.003   3.417   2.860
27848W        W28329  11.420   2.643   2.392
27849W        W28330  12.886   0.759   2.430
27850W        W28331  12.249   2.782   0.279
27851W        W28332  14.154   3.164   0.465
27852W        W28333  13.129   1.817   0.479
27853W        W28334  11.972   1.008   0.996
27854W        W28335  12.804   0.918   0.048
27855W        W28336  13.388   2.483   3.226
27856W        W28337  13.741   0.389   0.843
27857W        W28338  11.071   0.237   0.291
27858W        W28339  12.357   2.556   2.581
27859W        W28340  12.156   2.472   1.673
27860W        W28341  11.898   2.424   0.071
27861W        W28342  11.139   2.665   0.839
27862W        W28343  11.643   1.735   3.281
27863W        W28344  12.347   0.295   3.467
27864W        W28345  13.056   0.437   2.823
27865W        W28346  12.251   0.205   1.104
27866W        W28347  13.310   0.282   0.609
27867W        W28348  11.255   0.214   2.186
27868W        W28349  11.303   1.177   1.556
27869W        W28350  13.992   0.285   1.962
27870W        W28351  11.414   0.783   0.776
27871W        W28352  13.985   0.471   2.392
27872W        W28353  14.381   1.674   0.077
27873W        W28354  11.673   0.432   1.896
27874W        W28355  12.787   1.004   2.836
27875W        W28356  10.935   0.694   0.314
27876W        W28357  11.721   2.083   2.875
27877W        W28358  13.079   1.481   2.054
27878W        W28359  12.946   3.560   0.350
27879W        W28360  11.092   2.067   0.047
27880W        W28361  11.827   2.478   3.173
27881W        W28362  11.348   1.645   2.804
27882W        W28363  12.339   1.750   2.598
27883W        W28364  14.107   0.109   2.860
27884W        W28365  14.505   1.719   2.851
27885W        W28366  14.493   1.919   0.537
27886W        W28367  13.356   2.251   0.636
27887W        W28368  13.830   3.551   0.331
27888W        W28369  13.007   1.541   3.473
27889W        W28370  11.337   2.508   3.513
27890W        W28371  14.543   0.430   3.465
27891W        W28372  14.261   1.358   2.086
27892W        W28373  12.569   3.488   3.563
27893W        W28374  12.424   0.117   0.290
27894W        W28375  13.963   2.716   0.233
27895W        W28376  11.732   0.809   3.119
27896W        W28377  12.166   2.803   2.981
27897W        W28378  14.292   0.794   2.779
27898W        W28379  13.503   3.453   0.747
27899W        W28380  13.742   2.072   2.114
27900W        W28381  11.992   0.488   2.781
27901W        W28382  12.461   1.557   3.538
27902W        W28383  11.964   2.736   0.732
27903W        W28384  13.719   2.234   0.996
27904W        W28385  11.487   0.860   2.720
27905W        W28386  12.816   2.922   1.184
27906W        W28387  14.566   1.482   1.365
27907W        W28388  12.788   0.115   3.084
27908W        W28389  13.568   2.820   2.163
27909W        W28390  13.871   3.164   1.871
27910W        W28391  13.090   2.966   0.299
27911W        W28392  11.100   2.858   3.141
27912W        W28393  11.843   0.850   2.379
27913W        W28394  11.813   0.198   1.489
27914W        W28395  13.434   1.040   2.181
27915W        W28396  12.232   2.211   0.381
27916W        W28397  14.230   2.153   1.880
27917W        W28398  11.557   2.911   3.303
27918W        W28399  13.944   3.593   1.100
27919W        W28400  12.043   0.613   1.545
27920W        W28401  11.812   2.106   1.635
27921W        W28402  12.125   3.517   2.385
27922W        W28403  14.192   3.613   3.417
27923W        W28404  13.351   1.801   2.350
27924W        W28405  11.200   1.599   0.265
27925W        W28406  14.334   3.257   0.962
27926W        W28407  14.171   0.581   0.581
27927W        W28408  12.310   0.100   2.984
27928W        W28409  14.016   2.902   1.442
27929W        W28410  14.045   1.458   1.347
27930W        W28411  12.162   1.131   1.563
27931W        W28412  12.407   1.393   2.887
27932W        W28413  13.518   2.546   2.750
27933W        W28414  12.168   1.000   2.862
27934W        W28415  12.147   3.466   1.478
27935W        W28416  11.464   3.425   3.112
27936W        W28417  11.576   2.786   0.242
27937W        W28418  14.093   2.544   1.052
27938W        W28419  11.697   1.336   2.938
27939W        W28420  14.470   1.266   0.419
27940W        W28421  12.215   2.323   0.890
27941W        W28422  13.314   1.705   2.971
27942W        W28423  13.205   1.333   2.515
27943W        W28424  11.765   1.705   2.544
27944W        W28425  13.975   3.593   2.373
27945W        W28426  13.766   0.227   3.367
27946W        W28427  11.430   0.377   2.954
27947W        W28428  11.769   1.400   2.007
27948W        W28429  12.138   1.214   0.129
27949W        W28430  10.941   2.973   2.674
27950W        W28431  12.526   1.682   2.117
27951W        W28432  12.349   0.707   0.222
27952W        W28433  11.255   3.375   2.440
27953W        W28434  14.050   1.601   0.548
27954W        W28435  14.145   0.517   3.234
27955W        W28436  13.581   2.726   1.197
27956W        W28437  11.179   1.650   3.374
27957W        W28438  14.145   0.114   0.670
27958W        W28439  13.665   2.589   0.681
27959W        W28440  12.567   1.647   0.766
27960W        W28441  13.754   0.451   0.289
27961W        W28442  11.528   1.651   1.682
27962W        W28443  13.585   1.210   1.296
27963W        W28444  12.608   0.589   1.992
27964W        W28445  14.570   2.500   2.503
27965W        W28446  14.488   0.487   2.064
27966W        W28447  11.027   3.317   1.440
27967W        W28448  11.536   2.504   0.976
27968W        W28449  11.451   0.121   3.529
27969W        W28450  12.570   2.974   3.631
27970W        W28451  14.325   1.942   1.421
27971W        W28452  13.679   2.119   0.301
27972W        W28453  12.974   3.640   2.513
27973W        W28454  13.831   2.362   3.550
27974W        W28455  12.646   0.072   0.830
27975W        W28456  13.359   0.941   1.689
27976W        W28457  11.045   2.528   2.021
27977W        W28458  12.298   0.490   0.662
27978W        W28459  12.102   1.974   3.511
27979W        W28460  13.096   0.955   1.225
27980W        W28461  13.301   2.365   2.347
27981W        W28462  11.455   2.970   2.782
27982W        W28463  12.046   2.953   3.505
27983W        W28464  11.897   0.750   0.519
27984W        W28465  13.414   0.892   0.844
27985W        W28466  13.372   3.000   3.081
27986W        W28467  12.057   1.592   1.680
27987W        W28468  11.712   3.290   2.545
27988W        W28469  14.457   3.407   0.146
27989W        W28470  11.320   2.079   3.142
27990W        W28471  13.315   2.341   1.830
27991W        W28472  11.751   1.990   1.072
27992W        W28473  12.122   2.997   2.467
27993W        W28474  12.500   0.416   1.508
27994W        W28475  11.111   2.400   0.438
27995W        W28476  12.630   1.351   0.308
27996W        W28477  11.276   1.900   1.327
27997W        W28478  12.566   0.542   2.791
27998W        W28479  14.238   0.251   0.218
27999W        W28480  14.331   1.997   3.317
28000W        W28481  12.985   3.254   3.469
28001W        W28482  14.543   2.348   2.991
28002W        W28483  13.951   3.146   3.602
28003W        W28484  11.690   3.602   2.080
28004W        W28485  14.549   2.224   0.954
28005W        W28486  13.079   1.491   1.467
28006W        W28487  12.846   0.103   1.357
28007W        W28488  11.905   3.087   1.194
28008W        W28489  12.404   0.828   2.419
28009W        W28490  12.104   0.197   1.888
28010W        W28491  12.983   2.383   1.154
28011W        W28492  11.858   3.178   3.033
28012W        W28493  11.335   2.001   0.729
28013W        W28494  11.220   0.544   1.728
28014W        W28495  12.768   2.509   1.785
28015W        W28496  11.020   0.363   0.805
28016W        W28497  13.684   1.569   2.732
28017W        W28498  13.561   0.955   0.304
28018W        W28499  14.078   2.627   1.952
28019W        W28500  12.739   3.111   1.783
28020W        W28501  12.151   3.215   0.694
28021W        W28502  13.433   0.118   0.124
28022W        W28503  11.233   3.378   1.865
28023W        W28504  13.430   1.136   3.500
28024W        W28505  11.413   0.666   3.499
28025W        W28506  11.144   1.266   0.832
28026W        W28507  11.835   1.255   0.557
28027W        W28508  13.598   1.582   3.374
28028W        W28509  11.941   1.863   2.083
28029W        W28510  13.415   0.149   1.203
28030W        W28511  12.546   3.580   1.706
28031W        W28512  13.760   3.042   2.643
28032W        W28513  13.344   3.191   1.754
28033W        W28514  13.363   2.171   1.348
28034W        W28515  12.825   0.396   0.419
28035W        W28516  14.506   0.024   1.141
28036W        W28517  12.194   1.659   0.304
28037W        W28518  14.360   0.996   1.294
28038W        W28519  13.052   2.166   0.171
28039W        W28520  13.988   2.366   2.919
28040W        W28521  13.642   3.067   0.386
28041W        W28522  12.257   0.742   3.292
28042W        W28523  12.077   1.326   2.533
28043W        W28524  14.169   2.821   2.810
28044W        W28525  13.269   0.771   3.187
28045W        W28526  11.113   1.242   2.964
28046W        W28527  12.873   1.719   2.690
28047W        W28528  11.230   2.477   1.347
28048W        W28529  11.377   1.774   2.237
28049W        W28530  13.694   2.060   2.587
28050W        W28531  13.466   3.440   3.398
28051W        W28532  13.362   1.179   2.951
28052W        W28533  13.639   3.233   1.356
28053W        W28534  12.641   2.953   2.679
28054W        W28535  12.126   3.308   1.948
28055W        W28536  13.931   2.479   2.367
28056W        W28537  11.586   2.504   1.843
28057W        W28538  13.932   2.263   1.488
28058W        W28539  13.573   3.329   2.239
28059W        W28540  11.551   3.058   2.109
28060W        W28541  12.572   1.110   3.319
28061W        W28542  13.023   3.276   0.830
28062W        W28543  12.331   2.531   3.468
28063W        W28544  12.457   2.769   0.845
28064W        W28545  11.678   1.509   0.104
28065W        W28546  11.017   3.595   7.003
28066W        W28547  11.393   2.488   6.526
28067W        W28548  14.098   2.218   4.296
28068W        W28549  14.228   3.303   6.323
28069W        W28550  12.146   3.294   3.849
28070W        W28551  12.229   1.446   4.832
28071W        W28552  11.744   1.294   4.996
28072W        W28553  12.735   2.109   4.430
28073W        W28554  12.410   3.201   6.785
28074W        W28555  11.059   0.762   6.748
28075W        W28556  11.821   0.042   6.550
28076W        W28557  13.515   0.430   5.437
28077W        W28558  13.164   1.301   4.007
28078W        W28559  13.734   0.735   7.098
28079W        W28560  11.100   0.527   6.223
28080W        W28561  11.199   3.146   7.244
28081W        W28562  12.721   2.536   3.976
28082W        W28563  11.153   1.319   5.669
28083W        W28564  12.046   1.210   6.906
28084W        W28565  14.505   1.069   5.405
28085W        W28566  14.269   2.112   6.264
28086W        W28567  12.577   1.445   5.291
28087W        W28568  13.123   2.784   5.660
28088W        W28569  11.623   2.218   5.892
28089W        W28570  10.982   1.746   5.463
28090W        W28571  12.018   1.718   6.655
28091W        W28572  14.289   1.501   6.909
28092W        W28573  11.905   2.945   5.354
28093W        W28574  13.026   2.634   6.488
28094W        W28575  12.246   1.274   5.713
28095W        W28576  12.538   2.058   5.356
28096W        W28577  13.535   2.831   7.204
28097W        W28578  12.614   2.151   7.214
28098W        W28579  12.595   1.867   6.692
28099W        W28580  11.004   1.258   7.214
28100W        W28581  13.836   2.793   6.813
28101W        W28582  11.417   0.375   4.811
28102W        W28583  11.944   2.633   5.810
28103W        W28584  14.407   2.416   5.100
28104W        W28585  13.820   0.816   5.667
28105W        W28586  14.570   1.570   6.068
28106W        W28587  12.537   3.277   5.821
28107W        W28588  14.311   2.743   4.259
28108W        W28589  11.440   3.529   4.013
28109W        W28590  11.833   3.575   4.689
28110W        W28591  11.630   0.329   6.115
28111W        W28592  14.253   1.347   6.390
28112W        W28593  13.658   1.769   4.849
28113W        W28594  13.624   1.457   3.876
28114W        W28595  12.832   2.601   6.016
28115W        W28596  12.638   0.931   5.215
28116W        W28597  14.109   1.809   4.631
28117W        W28598  13.011   0.467   4.647
28118W        W28599  11.668   3.161   4.330
28119W        W28600  11.039   0.660   4.929
28120W        W28601  13.825   1.267   5.403
28121W        W28602  11.283   2.884   5.318
28122W        W28603  12.624   3.234   4.188
28123W        W28604  14.016   1.260   3.652
28124W        W28605  11.039   3.018   5.816
28125W        W28606  11.830   2.590   6.296
28126W        W28607  12.203   1.950   4.915
28127W        W28608  12.225   0.355   6.008
28128W        W28609  14.454   0.117   5.305
28129W        W28610  11.673   1.989   3.773
28130W        W28611  11.328   1.022   3.952
28131W        W28612  11.390   2.978   4.746
28132W        W28613  13.853   3.320   6.708
28133W        W28614  12.779   0.962   4.392
28134W        W28615  14.162   3.360   5.164
28135W        W28616  13.839   1.213   6.762
28136W        W28617  14.552   2.869   4.896
28137W        W28618  13.179   2.161   6.380
28138W        W28619  10.945   1.712   4.586
28139W        W28620  12.056   2.127   6.159
28140W        W28621  13.260   1.391   4.537
28141W        W28622  13.137   1.881   4.641
28142W        W28623  11.480   1.301   6.115
28143W        W28624  11.465   1.177   7.037
28144W        W28625  11.355   0.094   5.196
28145W        W28626  13.123   0.441   5.757
28146W        W28627  12.771   0.626   6.920
28147W        W28628  13.126   0.775   4.098
28148W        W28629  14.309   3.168   6.852
28149W        W28630  13.276   0.249   6.891
28150W        W28631  14.295   2.550   7.013
28151W        W28632  13.725   0.717   6.609
28152W        W28633  13.525   0.655   4.879
28153W        W28634  13.918   1.789   7.283
28154W        W28635  11.658   3.365   5.269
28155W        W28636  12.316   1.082   4.255
28156W        W28637  11.885   0.366   6.919
28157W        W28638  13.937   0.850   4.600
28158W        W28639  14.304   1.332   4.545
28159W        W28640  12.047   3.549   7.016
28160W        W28641  11.973   0.085   4.251
28161W        W28642  14.294   0.619   5.286
28162W        W28643  14.444   2.868   3.731
28163W        W28644  11.351   2.071   5.433
28164W        W28645  13.268   0.658   3.663
28165W        W28646  14.402   2.990   5.383
28166W        W28647  14.441   0.184   6.133
28167W        W28648  12.886   1.396   6.687
28168W        W28649  12.979   2.735   4.390
28169W        W28650  13.379   2.029   7.130
28170W        W28651  13.053   0.006   5.439
28171W        W28652  11.665   0.909   5.502
28172W        W28653  11.219   2.109   6.276
28173W        W28654  13.078   3.302   4.982
28174W        W28655  14.272   0.899   5.854
28175W        W28656  12.909   3.246   6.621
28176W        W28657  14.252   2.305   3.826
28177W        W28658  12.687   1.788   4.887
28178W        W28659  14.539   0.299   6.628
28179W        W28660  12.688   2.134   6.222
28180W        W28661  12.905   1.020   5.667
28181W        W28662  13.757   1.318   4.505
28182W        W28663  14.044   1.051   4.147
28183W        W28664  13.853   3.091   4.536
28184W        W28665  13.687   2.694   5.332
28185W        W28666  13.583   1.773   4.310
28186W        W28667  13.016   1.983   5.296
28187W        W28668  13.897   1.771   5.363
28188W        W28669  11.272   0.786   5.787
28189W        W28670  14.050   1.838   6.614
28190W        W28671  14.401   3.456   5.760
28191W        W28672  12.331   2.900   5.162
28192W        W28673  13.338   3.433   6.486
28193W        W28674  13.332   0.763   6.250
28194W        W28675  12.539   3.471   6.311
28195W        W28676  14.236   0.425   4.777
28196W        W28677  14.027   1.744   6.078
28197W        W28678  11.010   1.065   6.116
28198W        W28679  13.870   0.860   5.134
28199W        W28680  14.281   1.011   6.911
28200W        W28681  13.166   2.710   5.129
28201W        W28682  12.422   3.301   4.742
28202W        W28683  11.537   0.481   4.000
28203W        W28684  12.641   0.135   5.810
28204W        W28685  11.669   3.255   3.658
28205W        W28686  12.043   1.721   4.409
28206W        W28687  12.697   2.350   6.722
28207W        W28688  12.527   0.708   4.712
28208W        W28689  13.883   0.305   5.140
28209W        W28690  13.603   3.587   5.468
28210W        W28691  13.015   3.235   5.808
28211W        W28692  12.411   2.272   5.769
28212W        W28693  14.181   2.995   5.895
28213W        W28694  11.875   0.498   4.664
28214W        W28695  12.397   2.795   5.624
28215W        W28696  11.880   0.726   3.689
28216W        W28697  12.681   1.335   6.083
28217W        W28698  13.529   0.201   5.953
28218W        W28699  10.949   2.044   5.838
28219W        W28700  12.653   1.862   3.996
28220W        W28701  11.921   0.177   3.766
28221W        W28702  12.659   1.258   4.817
28222W        W28703  13.629   0.234   6.516
28223W        W28704  12.217   2.246   6.625
28224W        W28705  13.021   2.028   6.842
28225W        W28706  13.638   2.058   6.735
28226W        W28707  12.922   0.198   7.240
28227W        W28708  12.144   0.814   5.633
28228W        W28709  11.570   0.770   5.031
28229W        W28710  11.356   3.482   4.707
28230W        W28711  12.688   2.812   6.832
28231W        W28712  11.723   2.297   4.191
28232W        W28713  13.403   1.682   5.412
28233W        W28714  13.683   1.481   5.811
28234W        W28715  12.888   2.155   5.745
28235W        W28716  13.358   2.529   3.877
28236W        W28717  13.030   0.550   5.205
28237W        W28718  14.509   0.828   4.473
28238W        W28719  11.003   3.417   6.504
28239W        W28720  11.420   2.643   6.036
28240W        W28721  10.987   3.489   4.268
28241W        W28722  12.886   0.759   6.074
28242W        W28723  12.249   2.782   3.923
28243W        W28724  14.154   3.164   4.109
28244W        W28725  13.129   1.817   4.123
28245W        W28726  11.972   1.008   4.640
28246W        W28727  12.804   0.918   3.692
28247W        W28728  13.388   2.483   6.870
28248W        W28729  13.741   0.389   4.487
28249W        W28730  11.071   0.237   3.935
28250W        W28731  12.357   2.556   6.225
28251W        W28732  12.156   2.472   5.317
28252W        W28733  11.898   2.424   3.715
28253W        W28734  11.139   2.665   4.483
28254W        W28735  11.643   1.735   6.925
28255W        W28736  12.347   0.295   7.111
28256W        W28737  13.056   0.437   6.467
28257W        W28738  12.251   0.205   4.748
28258W        W28739  13.310   0.282   4.253
28259W        W28740  11.255   0.214   5.830
28260W        W28741  11.303   1.177   5.200
28261W        W28742  13.992   0.285   5.606
28262W        W28743  11.414   0.783   4.420
28263W        W28744  13.985   0.471   6.036
28264W        W28745  14.381   1.674   3.721
28265W        W28746  11.673   0.432   5.540
28266W        W28747  12.787   1.004   6.480
28267W        W28748  10.935   0.694   3.958
28268W        W28749  11.721   2.083   6.519
28269W        W28750  13.079   1.481   5.698
28270W        W28751  12.946   3.560   3.994
28271W        W28752  11.092   2.067   3.691
28272W        W28753  11.827   2.478   6.817
28273W        W28754  11.348   1.645   6.448
28274W        W28755  12.339   1.750   6.242
28275W        W28756  14.107   0.109   6.504
28276W        W28757  14.505   1.719   6.495
28277W        W28758  14.493   1.919   4.181
28278W        W28759  13.356   2.251   4.280
28279W        W28760  13.830   3.551   3.975
28280W        W28761  13.007   1.541   7.117
28281W        W28762  11.337   2.508   7.157
28282W        W28763  14.543   0.430   7.109
28283W        W28764  14.261   1.358   5.730
28284W        W28765  12.569   3.488   7.207
28285W        W28766  12.424   0.117   3.934
28286W        W28767  13.963   2.716   3.877
28287W        W28768  11.732   0.809   6.763
28288W        W28769  12.166   2.803   6.625
28289W        W28770  14.292   0.794   6.423
28290W        W28771  13.503   3.453   4.391
28291W        W28772  13.742   2.072   5.758
28292W        W28773  11.992   0.488   6.425
28293W        W28774  12.461   1.557   7.182
28294W        W28775  11.964   2.736   4.376
28295W        W28776  13.719   2.234   4.640
28296W        W28777  11.487   0.860   6.364
28297W        W28778  12.816   2.922   4.828
28298W        W28779  14.566   1.482   5.009
28299W        W28780  12.788   0.115   6.728
28300W        W28781  13.568   2.820   5.807
28301W        W28782  13.871   3.164   5.515
28302W        W28783  13.090   2.966   3.943
28303W        W28784  11.100   2.858   6.785
28304W        W28785  11.843   0.850   6.023
28305W        W28786  11.813   0.198   5.133
28306W        W28787  12.232   2.211   4.025
28307W        W28788  14.230   2.153   5.524
28308W        W28789  11.557   2.911   6.947
28309W        W28790  12.043   0.613   5.189
28310W        W28791  11.812   2.106   5.279
28311W        W28792  12.125   3.517   6.029
28312W        W28793  14.192   3.613   7.061
28313W        W28794  13.351   1.801   5.994
28314W        W28795  11.200   1.599   3.909
28315W        W28796  14.334   3.257   4.606
28316W        W28797  14.171   0.581   4.225
28317W        W28798  12.310   0.100   6.628
28318W        W28799  14.016   2.902   5.086
28319W        W28800  14.045   1.458   4.991
28320W        W28801  12.162   1.131   5.207
28321W        W28802  12.407   1.393   6.531
28322W        W28803  13.518   2.546   6.394
28323W        W28804  12.168   1.000   6.506
28324W        W28805  12.147   3.466   5.122
28325W        W28806  11.464   3.425   6.756
28326W        W28807  11.576   2.786   3.886
28327W        W28808  14.093   2.544   4.696
28328W        W28809  11.697   1.336   6.582
28329W        W28810  14.470   1.266   4.063
28330W        W28811  12.215   2.323   4.534
28331W        W28812  13.314   1.705   6.615
28332W        W28813  13.205   1.333   6.159
28333W        W28814  11.765   1.705   6.188
28334W        W28815  13.766   0.227   7.011
28335W        W28816  11.430   0.377   6.598
28336W        W28817  11.769   1.400   5.651
28337W        W28818  12.138   1.214   3.773
28338W        W28819  10.941   2.973   6.318
28339W        W28820  12.526   1.682   5.761
28340W        W28821  11.484   1.523   4.647
28341W        W28822  11.255   3.375   6.084
28342W        W28823  14.050   1.601   4.192
28343W        W28824  14.145   0.517   6.878
28344W        W28825  13.581   2.726   4.841
28345W        W28826  11.179   1.650   7.018
28346W        W28827  14.145   0.114   4.314
28347W        W28828  13.665   2.589   4.325
28348W        W28829  12.567   1.647   4.410
28349W        W28830  13.754   0.451   3.933
28350W        W28831  13.819   1.058   6.119
28351W        W28832  11.528   1.651   5.326
28352W        W28833  11.822   2.590   4.975
28353W        W28834  13.585   1.210   4.940
28354W        W28835  12.608   0.589   5.636
28355W        W28836  14.570   2.500   6.147
28356W        W28837  14.488   0.487   5.708
28357W        W28838  11.027   3.317   5.084
28358W        W28839  11.536   2.504   4.620
28359W        W28840  11.451   0.121   7.173
28360W        W28841  12.570   2.974   7.275
28361W        W28842  14.325   1.942   5.065
28362W        W28843  13.679   2.119   3.945
28363W        W28844  12.974   3.640   6.157
28364W        W28845  13.831   2.362   7.194
28365W        W28846  13.359   0.941   5.333
28366W        W28847  11.045   2.528   5.665
28367W        W28848  12.298   0.490   4.306
28368W        W28849  12.102   1.974   7.155
28369W        W28850  13.096   0.955   4.869
28370W        W28851  13.301   2.365   5.991
28371W        W28852  11.455   2.970   6.426
28372W        W28853  12.046   2.953   7.149
28373W        W28854  11.897   0.750   4.163
28374W        W28855  13.414   0.892   4.488
28375W        W28856  13.372   3.000   6.725
28376W        W28857  12.057   1.592   5.324
28377W        W28858  11.712   3.290   6.189
28378W        W28859  14.457   3.407   3.790
28379W        W28860  11.320   2.079   6.786
28380W        W28861  13.315   2.341   5.474
28381W        W28862  11.751   1.990   4.716
28382W        W28863  12.122   2.997   6.111
28383W        W28864  12.500   0.416   5.152
28384W        W28865  11.111   2.400   4.082
28385W        W28866  12.630   1.351   3.952
28386W        W28867  11.276   1.900   4.971
28387W        W28868  12.566   0.542   6.435
28388W        W28869  14.238   0.251   3.862
28389W        W28870  14.331   1.997   6.961
28390W        W28871  12.985   3.254   7.113
28391W        W28872  14.543   2.348   6.635
28392W        W28873  13.951   3.146   7.246
28393W        W28874  11.690   3.602   5.724
28394W        W28875  14.549   2.224   4.598
28395W        W28876  13.079   1.491   5.111
28396W        W28877  12.846   0.103   5.001
28397W        W28878  11.905   3.087   4.838
28398W        W28879  12.404   0.828   6.063
28399W        W28880  12.104   0.197   5.532
28400W        W28881  11.167   3.019   4.080
28401W        W28882  12.983   2.383   4.798
28402W        W28883  11.858   3.178   6.677
28403W        W28884  11.335   2.001   4.373
28404W        W28885  11.220   0.544   5.372
28405W        W28886  12.768   2.509   5.429
28406W        W28887  11.020   0.363   4.449
28407W        W28888  13.684   1.569   6.376
28408W        W28889  13.561   0.955   3.948
28409W        W28890  14.078   2.627   5.596
28410W        W28891  12.739   3.111   5.427
28411W        W28892  12.151   3.215   4.338
28412W        W28893  13.433   0.118   3.768
28413W        W28894  11.233   3.378   5.509
28414W        W28895  13.430   1.136   7.144
28415W        W28896  11.413   0.666   7.143
28416W        W28897  11.144   1.266   4.476
28417W        W28898  11.835   1.255   4.201
28418W        W28899  13.598   1.582   7.018
28419W        W28900  11.941   1.863   5.727
28420W        W28901  13.415   0.149   4.847
28421W        W28902  13.760   3.042   6.287
28422W        W28903  13.344   3.191   5.398
28423W        W28904  13.363   2.171   4.992
28424W        W28905  12.825   0.396   4.063
28425W        W28906  14.506   0.024   4.785
28426W        W28907  12.194   1.659   3.948
28427W        W28908  14.360   0.996   4.938
28428W        W28909  13.052   2.166   3.815
28429W        W28910  13.988   2.366   6.563
28430W        W28911  13.642   3.067   4.030
28431W        W28912  12.257   0.742   6.936
28432W        W28913  12.077   1.326   6.177
28433W        W28914  14.169   2.821   6.454
28434W        W28915  13.269   0.771   6.831
28435W        W28916  11.113   1.242   6.608
28436W        W28917  12.873   1.719   6.334
28437W        W28918  11.230   2.477   4.991
28438W        W28919  11.377   1.774   5.881
28439W        W28920  13.694   2.060   6.231
28440W        W28921  13.466   3.440   7.042
28441W        W28922  13.362   1.179   6.595
28442W        W28923  13.639   3.233   5.000
28443W        W28924  12.641   2.953   6.323
28444W        W28925  12.126   3.308   5.592
28445W        W28926  13.931   2.479   6.011
28446W        W28927  12.981   2.551   7.148
28447W        W28928  11.586   2.504   5.487
28448W        W28929  13.932   2.263   5.132
28449W        W28930  13.573   3.329   5.883
28450W        W28931  11.551   3.058   5.753
28451W        W28932  12.572   1.110   6.963
28452W        W28933  13.023   3.276   4.474
28453W        W28934  12.457   2.769   4.489
28454W        W28935  11.678   1.509   3.748
28455W        W28936  11.017   3.595  10.648
28456W        W28937  11.393   2.488  10.171
28457W        W28938  14.098   2.218   7.941
28458W        W28939  14.228   3.303   9.968
28459W        W28940  12.146   3.294   7.494
28460W        W28941  12.229   1.446   8.477
28461W        W28942  11.744   1.294   8.641
28462W        W28943  12.735   2.109   8.075
28463W        W28944  12.410   3.201  10.430
28464W        W28945  11.059   0.762  10.393
28465W        W28946  11.821   0.042  10.195
28466W        W28947  13.515   0.430   9.082
28467W        W28948  13.164   1.301   7.652
28468W        W28949  13.734   0.735  10.743
28469W        W28950  11.100   0.527   9.868
28470W        W28951  11.199   3.146  10.889
28471W        W28952  12.721   2.536   7.621
28472W        W28953  11.153   1.319   9.314
28473W        W28954  12.046   1.210  10.551
28474W        W28955  14.505   1.069   9.050
28475W        W28956  14.269   2.112   9.909
28476W        W28957  12.577   1.445   8.936
28477W        W28958  13.123   2.784   9.305
28478W        W28959  11.623   2.218   9.537
28479W        W28960  10.982   1.746   9.108
28480W        W28961  14.289   1.501  10.554
28481W        W28962  11.905   2.945   8.999
28482W        W28963  13.026   2.634  10.133
28483W        W28964  12.246   1.274   9.358
28484W        W28965  12.538   2.058   9.001
28485W        W28966  13.535   2.831  10.849
28486W        W28967  12.614   2.151  10.859
28487W        W28968  12.595   1.867  10.337
28488W        W28969  11.004   1.258  10.859
28489W        W28970  13.836   2.793  10.458
28490W        W28971  11.417   0.375   8.456
28491W        W28972  11.944   2.633   9.455
28492W        W28973  14.407   2.416   8.745
28493W        W28974  13.820   0.816   9.312
28494W        W28975  14.105   0.769   7.407
28495W        W28976  14.570   1.570   9.713
28496W        W28977  12.537   3.277   9.466
28497W        W28978  14.311   2.743   7.904
28498W        W28979  11.440   3.529   7.658
28499W        W28980  11.833   3.575   8.334
28500W        W28981  11.630   0.329   9.760
28501W        W28982  14.253   1.347  10.035
28502W        W28983  13.658   1.769   8.494
28503W        W28984  13.624   1.457   7.521
28504W        W28985  12.832   2.601   9.661
28505W        W28986  12.638   0.931   8.860
28506W        W28987  13.238   3.018   9.854
28507W        W28988  14.109   1.809   8.276
28508W        W28989  13.011   0.467   8.292
28509W        W28990  11.668   3.161   7.975
28510W        W28991  11.039   0.660   8.574
28511W        W28992  13.825   1.267   9.048
28512W        W28993  11.283   2.884   8.963
28513W        W28994  12.624   3.234   7.833
28514W        W28995  14.016   1.260   7.297
28515W        W28996  11.039   3.018   9.461
28516W        W28997  11.830   2.590   9.941
28517W        W28998  12.203   1.950   8.560
28518W        W28999  12.225   0.355   9.653
28519W        W29000  14.454   0.117   8.950
28520W        W29001  11.673   1.989   7.418
28521W        W29002  11.328   1.022   7.597
28522W        W29003  12.521   2.461   8.639
28523W        W29004  13.853   3.320  10.353
28524W        W29005  12.779   0.962   8.037
28525W        W29006  14.162   3.360   8.809
28526W        W29007  13.839   1.213  10.407
28527W        W29008  14.552   2.869   8.541
28528W        W29009  13.179   2.161  10.025
28529W        W29010  10.945   1.712   8.231
28530W        W29011  12.056   2.127   9.804
28531W        W29012  13.260   1.391   8.182
28532W        W29013  13.137   1.881   8.286
28533W        W29014  11.480   1.301   9.760
28534W        W29015  11.465   1.177  10.682
28535W        W29016  11.355   0.094   8.841
28536W        W29017  13.123   0.441   9.402
28537W        W29018  12.771   0.626  10.565
28538W        W29019  13.126   0.775   7.743
28539W        W29020  14.309   3.168  10.497
28540W        W29021  13.276   0.249  10.536
28541W        W29022  14.295   2.550  10.658
28542W        W29023  13.725   0.717  10.254
28543W        W29024  13.525   0.655   8.524
28544W        W29025  13.918   1.789  10.928
28545W        W29026  11.658   3.365   8.914
28546W        W29027  12.316   1.082   7.900
28547W        W29028  11.885   0.366  10.564
28548W        W29029  13.937   0.850   8.245
28549W        W29030  12.047   3.549  10.661
28550W        W29031  11.973   0.085   7.896
28551W        W29032  14.294   0.619   8.931
28552W        W29033  14.444   2.868   7.376
28553W        W29034  11.351   2.071   9.078
28554W        W29035  13.268   0.658   7.308
28555W        W29036  14.402   2.990   9.028
28556W        W29037  14.441   0.184   9.778
28557W        W29038  12.886   1.396  10.332
28558W        W29039  12.979   2.735   8.035
28559W        W29040  13.379   2.029  10.775
28560W        W29041  13.053   0.006   9.084
28561W        W29042  11.665   0.909   9.147
28562W        W29043  11.219   2.109   9.921
28563W        W29044  13.078   3.302   8.627
28564W        W29045  14.272   0.899   9.499
28565W        W29046  12.909   3.246  10.266
28566W        W29047  14.252   2.305   7.471
28567W        W29048  12.687   1.788   8.532
28568W        W29049  14.539   0.299  10.273
28569W        W29050  12.688   2.134   9.867
28570W        W29051  12.905   1.020   9.312
28571W        W29052  13.757   1.318   8.150
28572W        W29053  14.044   1.051   7.792
28573W        W29054  13.853   3.091   8.181
28574W        W29055  13.687   2.694   8.977
28575W        W29056  13.583   1.773   7.955
28576W        W29057  13.016   1.983   8.941
28577W        W29058  13.897   1.771   9.008
28578W        W29059  11.272   0.786   9.432
28579W        W29060  14.050   1.838  10.259
28580W        W29061  14.401   3.456   9.405
28581W        W29062  12.331   2.900   8.807
28582W        W29063  13.338   3.433  10.131
28583W        W29064  13.332   0.763   9.895
28584W        W29065  14.236   0.425   8.422
28585W        W29066  14.027   1.744   9.723
28586W        W29067  11.010   1.065   9.761
28587W        W29068  13.870   0.860   8.779
28588W        W29069  14.281   1.011  10.556
28589W        W29070  13.166   2.710   8.774
28590W        W29071  12.422   3.301   8.387
28591W        W29072  11.537   0.481   7.645
28592W        W29073  12.641   0.135   9.455
28593W        W29074  11.669   3.255   7.303
28594W        W29075  12.043   1.721   8.054
28595W        W29076  12.697   2.350  10.367
28596W        W29077  12.527   0.708   8.357
28597W        W29078  13.883   0.305   8.785
28598W        W29079  13.603   3.587   9.113
28599W        W29080  13.015   3.235   9.453
28600W        W29081  12.411   2.272   9.414
28601W        W29082  14.181   2.995   9.540
28602W        W29083  11.875   0.498   8.309
28603W        W29084  12.397   2.795   9.269
28604W        W29085  11.880   0.726   7.334
28605W        W29086  12.681   1.335   9.728
28606W        W29087  13.529   0.201   9.598
28607W        W29088  10.949   2.044   9.483
28608W        W29089  12.653   1.862   7.641
28609W        W29090  11.921   0.177   7.411
28610W        W29091  12.659   1.258   8.462
28611W        W29092  13.629   0.234  10.161
28612W        W29093  12.217   2.246  10.270
28613W        W29094  13.021   2.028  10.487
28614W        W29095  13.638   2.058  10.380
28615W        W29096  12.922   0.198  10.885
28616W        W29097  12.144   0.814   9.278
28617W        W29098  11.570   0.770   8.676
28618W        W29099  11.356   3.482   8.352
28619W        W29100  12.688   2.812  10.477
28620W        W29101  11.723   2.297   7.836
28621W        W29102  13.403   1.682   9.057
28622W        W29103  13.683   1.481   9.456
28623W        W29104  12.888   2.155   9.390
28624W        W29105  13.358   2.529   7.522
28625W        W29106  13.030   0.550   8.850
28626W        W29107  14.509   0.828   8.118
28627W        W29108  11.003   3.417  10.149
28628W        W29109  11.420   2.643   9.681
28629W        W29110  10.987   3.489   7.913
28630W        W29111  12.886   0.759   9.719
28631W        W29112  12.249   2.782   7.568
28632W        W29113  14.154   3.164   7.754
28633W        W29114  13.129   1.817   7.768
28634W        W29115  11.972   1.008   8.285
28635W        W29116  12.804   0.918   7.337
28636W        W29117  13.388   2.483  10.515
28637W        W29118  13.741   0.389   8.132
28638W        W29119  11.071   0.237   7.580
28639W        W29120  12.357   2.556   9.870
28640W        W29121  12.156   2.472   8.962
28641W        W29122  11.898   2.424   7.360
28642W        W29123  11.139   2.665   8.128
28643W        W29124  11.643   1.735  10.570
28644W        W29125  12.347   0.295  10.756
28645W        W29126  13.056   0.437  10.112
28646W        W29127  12.251   0.205   8.393
28647W        W29128  13.310   0.282   7.898
28648W        W29129  11.255   0.214   9.475
28649W        W29130  11.303   1.177   8.845
28650W        W29131  13.992   0.285   9.251
28651W        W29132  11.414   0.783   8.065
28652W        W29133  13.985   0.471   9.681
28653W        W29134  14.381   1.674   7.366
28654W        W29135  11.673   0.432   9.185
28655W        W29136  12.787   1.004  10.125
28656W        W29137  10.935   0.694   7.603
28657W        W29138  11.721   2.083  10.164
28658W        W29139  13.079   1.481   9.343
28659W        W29140  12.946   3.560   7.639
28660W        W29141  11.092   2.067   7.336
28661W        W29142  11.827   2.478  10.462
28662W        W29143  11.348   1.645  10.093
28663W        W29144  12.339   1.750   9.887
28664W        W29145  14.107   0.109  10.149
28665W        W29146  14.505   1.719  10.140
28666W        W29147  14.493   1.919   7.826
28667W        W29148  13.356   2.251   7.925
28668W        W29149  13.830   3.551   7.620
28669W        W29150  13.007   1.541  10.762
28670W        W29151  11.337   2.508  10.802
28671W        W29152  14.543   0.430  10.754
28672W        W29153  14.261   1.358   9.375
28673W        W29154  12.569   3.488  10.852
28674W        W29155  12.424   0.117   7.579
28675W        W29156  13.963   2.716   7.522
28676W        W29157  11.732   0.809  10.408
28677W        W29158  12.166   2.803  10.270
28678W        W29159  14.292   0.794  10.068
28679W        W29160  13.503   3.453   8.036
28680W        W29161  13.742   2.072   9.403
28681W        W29162  11.992   0.488  10.070
28682W        W29163  11.964   2.736   8.021
28683W        W29164  13.719   2.234   8.285
28684W        W29165  11.487   0.860  10.009
28685W        W29166  12.816   2.922   8.473
28686W        W29167  14.566   1.482   8.654
28687W        W29168  12.788   0.115  10.373
28688W        W29169  13.568   2.820   9.452
28689W        W29170  13.871   3.164   9.160
28690W        W29171  13.090   2.966   7.588
28691W        W29172  11.100   2.858  10.430
28692W        W29173  11.843   0.850   9.668
28693W        W29174  11.813   0.198   8.778
28694W        W29175  13.434   1.040   9.470
28695W        W29176  12.232   2.211   7.670
28696W        W29177  14.230   2.153   9.169
28697W        W29178  11.557   2.911  10.592
28698W        W29179  13.944   3.593   8.389
28699W        W29180  12.043   0.613   8.834
28700W        W29181  11.812   2.106   8.924
28701W        W29182  12.125   3.517   9.674
28702W        W29183  14.192   3.613  10.706
28703W        W29184  13.351   1.801   9.639
28704W        W29185  11.200   1.599   7.554
28705W        W29186  14.334   3.257   8.251
28706W        W29187  14.171   0.581   7.870
28707W        W29188  12.310   0.100  10.273
28708W        W29189  14.016   2.902   8.731
28709W        W29190  14.045   1.458   8.636
28710W        W29191  12.162   1.131   8.852
28711W        W29192  12.407   1.393  10.176
28712W        W29193  13.518   2.546  10.039
28713W        W29194  12.168   1.000  10.151
28714W        W29195  12.147   3.466   8.767
28715W        W29196  11.464   3.425  10.401
28716W        W29197  11.576   2.786   7.531
28717W        W29198  14.093   2.544   8.341
28718W        W29199  11.697   1.336  10.227
28719W        W29200  14.470   1.266   7.708
28720W        W29201  12.215   2.323   8.179
28721W        W29202  13.314   1.705  10.260
28722W        W29203  13.205   1.333   9.804
28723W        W29204  11.765   1.705   9.833
28724W        W29205  13.975   3.593   9.662
28725W        W29206  13.766   0.227  10.656
28726W        W29207  11.430   0.377  10.243
28727W        W29208  11.769   1.400   9.296
28728W        W29209  12.138   1.214   7.418
28729W        W29210  10.941   2.973   9.963
28730W        W29211  12.526   1.682   9.406
28731W        W29212  12.349   0.707   7.511
28732W        W29213  11.484   1.523   8.292
28733W        W29214  11.255   3.375   9.729
28734W        W29215  14.050   1.601   7.837
28735W        W29216  14.145   0.517  10.523
28736W        W29217  13.581   2.726   8.486
28737W        W29218  11.179   1.650  10.663
28738W        W29219  14.145   0.114   7.959
28739W        W29220  13.665   2.589   7.970
28740W        W29221  12.567   1.647   8.055
28741W        W29222  13.754   0.451   7.578
28742W        W29223  13.819   1.058   9.764
28743W        W29224  11.528   1.651   8.971
28744W        W29225  11.822   2.590   8.620
28745W        W29226  13.585   1.210   8.585
28746W        W29227  12.608   0.589   9.281
28747W        W29228  14.570   2.500   9.792
28748W        W29229  14.488   0.487   9.353
28749W        W29230  11.027   3.317   8.729
28750W        W29231  11.536   2.504   8.265
28751W        W29232  11.451   0.121  10.818
28752W        W29233  12.570   2.974  10.920
28753W        W29234  14.325   1.942   8.710
28754W        W29235  13.679   2.119   7.590
28755W        W29236  12.974   3.640   9.802
28756W        W29237  13.831   2.362  10.839
28757W        W29238  12.646   0.072   8.119
28758W        W29239  13.359   0.941   8.978
28759W        W29240  11.045   2.528   9.310
28760W        W29241  12.298   0.490   7.951
28761W        W29242  12.102   1.974  10.800
28762W        W29243  13.096   0.955   8.514
28763W        W29244  13.301   2.365   9.636
28764W        W29245  11.455   2.970  10.071
28765W        W29246  12.046   2.953  10.794
28766W        W29247  11.897   0.750   7.808
28767W        W29248  13.414   0.892   8.133
28768W        W29249  13.372   3.000  10.370
28769W        W29250  12.057   1.592   8.969
28770W        W29251  11.712   3.290   9.834
28771W        W29252  14.457   3.407   7.435
28772W        W29253  11.320   2.079  10.431
28773W        W29254  13.315   2.341   9.119
28774W        W29255  11.751   1.990   8.361
28775W        W29256  12.122   2.997   9.756
28776W        W29257  12.500   0.416   8.797
28777W        W29258  11.111   2.400   7.727
28778W        W29259  12.630   1.351   7.597
28779W        W29260  11.276   1.900   8.616
28780W        W29261  12.566   0.542  10.080
28781W        W29262  14.238   0.251   7.507
28782W        W29263  14.331   1.997  10.606
28783W        W29264  12.985   3.254  10.758
28784W        W29265  14.543   2.348  10.280
28785W        W29266  13.951   3.146  10.891
28786W        W29267  11.690   3.602   9.369
28787W        W29268  13.079   1.491   8.756
28788W        W29269  12.846   0.103   8.646
28789W        W29270  11.905   3.087   8.483
28790W        W29271  12.404   0.828   9.708
28791W        W29272  12.104   0.197   9.177
28792W        W29273  11.167   3.019   7.725
28793W        W29274  12.983   2.383   8.443
28794W        W29275  11.858   3.178  10.322
28795W        W29276  11.335   2.001   8.018
28796W        W29277  11.220   0.544   9.017
28797W        W29278  11.020   0.363   8.094
28798W        W29279  13.684   1.569  10.021
28799W        W29280  13.561   0.955   7.593
28800W        W29281  14.078   2.627   9.241
28801W        W29282  12.739   3.111   9.072
28802W        W29283  12.151   3.215   7.983
28803W        W29284  13.433   0.118   7.413
28804W        W29285  11.233   3.378   9.154
28805W        W29286  13.430   1.136  10.789
28806W        W29287  11.413   0.666  10.788
28807W        W29288  11.835   1.255   7.846
28808W        W29289  13.598   1.582  10.663
28809W        W29290  11.941   1.863   9.372
28810W        W29291  13.415   0.149   8.492
28811W        W29292  12.546   3.580   8.995
28812W        W29293  13.760   3.042   9.932
28813W        W29294  13.344   3.191   9.043
28814W        W29295  13.363   2.171   8.637
28815W        W29296  12.825   0.396   7.708
28816W        W29297  14.506   0.024   8.430
28817W        W29298  12.194   1.659   7.593
28818W        W29299  14.360   0.996   8.583
28819W        W29300  13.052   2.166   7.460
28820W        W29301  13.988   2.366  10.208
28821W        W29302  13.642   3.067   7.675
28822W        W29303  12.257   0.742  10.581
28823W        W29304  12.077   1.326   9.822
28824W        W29305  14.169   2.821  10.099
28825W        W29306  13.269   0.771  10.476
28826W        W29307  11.113   1.242  10.253
28827W        W29308  12.873   1.719   9.979
28828W        W29309  11.230   2.477   8.636
28829W        W29310  11.377   1.774   9.526
28830W        W29311  13.694   2.060   9.876
28831W        W29312  13.466   3.440  10.687
28832W        W29313  13.362   1.179  10.240
28833W        W29314  13.639   3.233   8.645
28834W        W29315  12.641   2.953   9.968
28835W        W29316  12.126   3.308   9.237
28836W        W29317  13.931   2.479   9.656
28837W        W29318  12.981   2.551  10.793
28838W        W29319  11.586   2.504   9.132
28839W        W29320  13.932   2.263   8.777
28840W        W29321  13.573   3.329   9.528
28841W        W29322  11.551   3.058   9.398
28842W        W29323  12.572   1.110  10.608
28843W        W29324  13.023   3.276   8.119
28844W        W29325  12.331   2.531  10.757
28845W        W29326  12.457   2.769   8.134
28846W        W29327  11.678   1.509   7.393
28847W        W29328  11.017   3.595  14.292
28848W        W29329  11.393   2.488  13.815
28849W        W29330  14.098   2.218  11.585
28850W        W29331  14.228   3.303  13.612
28851W        W29332  12.146   3.294  11.138
28852W        W29333  12.229   1.446  12.121
28853W        W29334  11.744   1.294  12.285
28854W        W29335  12.735   2.109  11.719
28855W        W29336  12.410   3.201  14.074
28856W        W29337  11.059   0.762  14.037
28857W        W29338  11.821   0.042  13.839
28858W        W29339  13.515   0.430  12.726
28859W        W29340  13.164   1.301  11.296
28860W        W29341  13.734   0.735  14.387
28861W        W29342  11.100   0.527  13.512
28862W        W29343  11.199   3.146  14.533
28863W        W29344  12.721   2.536  11.265
28864W        W29345  11.153   1.319  12.958
28865W        W29346  12.046   1.210  14.195
28866W        W29347  14.505   1.069  12.694
28867W        W29348  14.269   2.112  13.553
28868W        W29349  12.577   1.445  12.580
28869W        W29350  13.123   2.784  12.949
28870W        W29351  11.623   2.218  13.181
28871W        W29352  10.982   1.746  12.752
28872W        W29353  12.018   1.718  13.944
28873W        W29354  14.289   1.501  14.198
28874W        W29355  11.905   2.945  12.643
28875W        W29356  13.026   2.634  13.777
28876W        W29357  12.246   1.274  13.002
28877W        W29358  12.538   2.058  12.645
28878W        W29359  13.535   2.831  14.493
28879W        W29360  12.614   2.151  14.503
28880W        W29361  12.595   1.867  13.981
28881W        W29362  11.004   1.258  14.503
28882W        W29363  13.836   2.793  14.102
28883W        W29364  11.417   0.375  12.100
28884W        W29365  11.944   2.633  13.099
28885W        W29366  14.407   2.416  12.389
28886W        W29367  13.820   0.816  12.956
28887W        W29368  14.105   0.769  11.051
28888W        W29369  14.570   1.570  13.357
28889W        W29370  12.537   3.277  13.110
28890W        W29371  14.311   2.743  11.548
28891W        W29372  11.440   3.529  11.302
28892W        W29373  11.833   3.575  11.978
28893W        W29374  11.630   0.329  13.404
28894W        W29375  14.253   1.347  13.679
28895W        W29376  13.658   1.769  12.138
28896W        W29377  13.624   1.457  11.165
28897W        W29378  12.832   2.601  13.305
28898W        W29379  12.638   0.931  12.504
28899W        W29380  13.238   3.018  13.498
28900W        W29381  14.109   1.809  11.920
28901W        W29382  13.011   0.467  11.936
28902W        W29383  11.668   3.161  11.619
28903W        W29384  11.039   0.660  12.218
28904W        W29385  13.825   1.267  12.692
28905W        W29386  11.283   2.884  12.607
28906W        W29387  12.624   3.234  11.477
28907W        W29388  14.016   1.260  10.941
28908W        W29389  11.039   3.018  13.105
28909W        W29390  11.830   2.590  13.585
28910W        W29391  12.203   1.950  12.204
28911W        W29392  14.454   0.117  12.594
28912W        W29393  11.673   1.989  11.062
28913W        W29394  11.328   1.022  11.241
28914W        W29395  11.390   2.978  12.035
28915W        W29396  12.521   2.461  12.283
28916W        W29397  13.853   3.320  13.997
28917W        W29398  12.779   0.962  11.681
28918W        W29399  14.162   3.360  12.453
28919W        W29400  13.839   1.213  14.051
28920W        W29401  14.552   2.869  12.185
28921W        W29402  13.179   2.161  13.669
28922W        W29403  10.945   1.712  11.875
28923W        W29404  12.056   2.127  13.448
28924W        W29405  13.260   1.391  11.826
28925W        W29406  13.137   1.881  11.930
28926W        W29407  11.480   1.301  13.404
28927W        W29408  11.465   1.177  14.326
28928W        W29409  11.355   0.094  12.485
28929W        W29410  13.123   0.441  13.046
28930W        W29411  12.771   0.626  14.209
28931W        W29412  13.126   0.775  11.387
28932W        W29413  14.309   3.168  14.141
28933W        W29414  13.276   0.249  14.180
28934W        W29415  14.295   2.550  14.302
28935W        W29416  13.725   0.717  13.898
28936W        W29417  13.525   0.655  12.168
28937W        W29418  13.918   1.789  14.572
28938W        W29419  11.658   3.365  12.558
28939W        W29420  12.316   1.082  11.544
28940W        W29421  11.885   0.366  14.208
28941W        W29422  13.937   0.850  11.889
28942W        W29423  14.304   1.332  11.834
28943W        W29424  12.047   3.549  14.305
28944W        W29425  11.973   0.085  11.540
28945W        W29426  14.294   0.619  12.575
28946W        W29427  14.444   2.868  11.020
28947W        W29428  11.351   2.071  12.722
28948W        W29429  13.268   0.658  10.952
28949W        W29430  14.402   2.990  12.672
28950W        W29431  14.441   0.184  13.422
28951W        W29432  12.886   1.396  13.976
28952W        W29433  12.979   2.735  11.679
28953W        W29434  13.379   2.029  14.419
28954W        W29435  13.053   0.006  12.728
28955W        W29436  11.665   0.909  12.791
28956W        W29437  11.219   2.109  13.565
28957W        W29438  13.078   3.302  12.271
28958W        W29439  14.272   0.899  13.143
28959W        W29440  12.909   3.246  13.910
28960W        W29441  14.252   2.305  11.115
28961W        W29442  12.687   1.788  12.176
28962W        W29443  14.539   0.299  13.917
28963W        W29444  12.688   2.134  13.511
28964W        W29445  12.905   1.020  12.956
28965W        W29446  13.757   1.318  11.794
28966W        W29447  14.044   1.051  11.436
28967W        W29448  13.853   3.091  11.825
28968W        W29449  13.687   2.694  12.621
28969W        W29450  13.583   1.773  11.599
28970W        W29451  13.016   1.983  12.585
28971W        W29452  13.897   1.771  12.652
28972W        W29453  11.272   0.786  13.076
28973W        W29454  14.050   1.838  13.903
28974W        W29455  14.401   3.456  13.049
28975W        W29456  12.331   2.900  12.451
28976W        W29457  13.338   3.433  13.775
28977W        W29458  13.332   0.763  13.539
28978W        W29459  12.539   3.471  13.600
28979W        W29460  14.236   0.425  12.066
28980W        W29461  14.027   1.744  13.367
28981W        W29462  11.010   1.065  13.405
28982W        W29463  13.870   0.860  12.423
28983W        W29464  14.281   1.011  14.200
28984W        W29465  13.166   2.710  12.418
28985W        W29466  12.422   3.301  12.031
28986W        W29467  11.537   0.481  11.289
28987W        W29468  12.641   0.135  13.099
28988W        W29469  11.669   3.255  10.947
28989W        W29470  12.043   1.721  11.698
28990W        W29471  12.697   2.350  14.011
28991W        W29472  12.527   0.708  12.001
28992W        W29473  13.883   0.305  12.429
28993W        W29474  13.603   3.587  12.757
28994W        W29475  13.015   3.235  13.097
28995W        W29476  12.411   2.272  13.058
28996W        W29477  14.181   2.995  13.184
28997W        W29478  11.875   0.498  11.953
28998W        W29479  12.397   2.795  12.913
28999W        W29480  11.880   0.726  10.978
29000W        W29481  12.681   1.335  13.372
29001W        W29482  13.529   0.201  13.242
29002W        W29483  10.949   2.044  13.127
29003W        W29484  12.653   1.862  11.285
29004W        W29485  11.921   0.177  11.055
29005W        W29486  13.629   0.234  13.805
29006W        W29487  12.217   2.246  13.914
29007W        W29488  13.021   2.028  14.131
29008W        W29489  13.638   2.058  14.024
29009W        W29490  12.922   0.198  14.529
29010W        W29491  12.144   0.814  12.922
29011W        W29492  11.570   0.770  12.320
29012W        W29493  11.356   3.482  11.996
29013W        W29494  12.688   2.812  14.121
29014W        W29495  11.723   2.297  11.480
29015W        W29496  13.403   1.682  12.701
29016W        W29497  13.683   1.481  13.100
29017W        W29498  12.888   2.155  13.034
29018W        W29499  13.358   2.529  11.166
29019W        W29500  14.509   0.828  11.762
29020W        W29501  11.003   3.417  13.793
29021W        W29502  11.420   2.643  13.325
29022W        W29503  10.987   3.489  11.557
29023W        W29504  12.886   0.759  13.363
29024W        W29505  12.249   2.782  11.212
29025W        W29506  14.154   3.164  11.398
29026W        W29507  13.129   1.817  11.412
29027W        W29508  11.972   1.008  11.929
29028W        W29509  12.804   0.918  10.981
29029W        W29510  13.388   2.483  14.159
29030W        W29511  13.741   0.389  11.776
29031W        W29512  11.071   0.237  11.224
29032W        W29513  12.357   2.556  13.514
29033W        W29514  12.156   2.472  12.606
29034W        W29515  11.898   2.424  11.004
29035W        W29516  11.139   2.665  11.772
29036W        W29517  11.643   1.735  14.214
29037W        W29518  12.347   0.295  14.400
29038W        W29519  13.056   0.437  13.756
29039W        W29520  12.251   0.205  12.037
29040W        W29521  13.310   0.282  11.542
29041W        W29522  11.255   0.214  13.119
29042W        W29523  11.303   1.177  12.489
29043W        W29524  13.992   0.285  12.895
29044W        W29525  11.414   0.783  11.709
29045W        W29526  13.985   0.471  13.325
29046W        W29527  14.381   1.674  11.010
29047W        W29528  11.673   0.432  12.829
29048W        W29529  12.787   1.004  13.769
29049W        W29530  10.935   0.694  11.247
29050W        W29531  11.721   2.083  13.808
29051W        W29532  13.079   1.481  12.987
29052W        W29533  12.946   3.560  11.283
29053W        W29534  11.092   2.067  10.980
29054W        W29535  11.827   2.478  14.106
29055W        W29536  11.348   1.645  13.737
29056W        W29537  12.339   1.750  13.531
29057W        W29538  14.107   0.109  13.793
29058W        W29539  14.505   1.719  13.784
29059W        W29540  14.493   1.919  11.470
29060W        W29541  13.356   2.251  11.569
29061W        W29542  13.830   3.551  11.264
29062W        W29543  13.007   1.541  14.406
29063W        W29544  11.337   2.508  14.446
29064W        W29545  14.543   0.430  14.398
29065W        W29546  14.261   1.358  13.019
29066W        W29547  12.569   3.488  14.496
29067W        W29548  12.424   0.117  11.223
29068W        W29549  13.963   2.716  11.166
29069W        W29550  11.732   0.809  14.052
29070W        W29551  12.166   2.803  13.914
29071W        W29552  14.292   0.794  13.712
29072W        W29553  13.503   3.453  11.680
29073W        W29554  13.742   2.072  13.047
29074W        W29555  11.992   0.488  13.714
29075W        W29556  12.461   1.557  14.471
29076W        W29557  11.964   2.736  11.665
29077W        W29558  13.719   2.234  11.929
29078W        W29559  11.487   0.860  13.653
29079W        W29560  12.816   2.922  12.117
29080W        W29561  14.566   1.482  12.298
29081W        W29562  12.788   0.115  14.017
29082W        W29563  13.568   2.820  13.096
29083W        W29564  13.871   3.164  12.804
29084W        W29565  13.090   2.966  11.232
29085W        W29566  11.100   2.858  14.074
29086W        W29567  11.843   0.850  13.312
29087W        W29568  11.813   0.198  12.422
29088W        W29569  13.434   1.040  13.114
29089W        W29570  12.232   2.211  11.314
29090W        W29571  14.230   2.153  12.813
29091W        W29572  11.557   2.911  14.236
29092W        W29573  13.944   3.593  12.033
29093W        W29574  12.043   0.613  12.478
29094W        W29575  11.812   2.106  12.568
29095W        W29576  12.125   3.517  13.318
29096W        W29577  14.192   3.613  14.350
29097W        W29578  13.351   1.801  13.283
29098W        W29579  11.200   1.599  11.198
29099W        W29580  14.334   3.257  11.895
29100W        W29581  14.171   0.581  11.514
29101W        W29582  12.310   0.100  13.917
29102W        W29583  14.016   2.902  12.375
29103W        W29584  14.045   1.458  12.280
29104W        W29585  12.162   1.131  12.496
29105W        W29586  12.407   1.393  13.820
29106W        W29587  13.518   2.546  13.683
29107W        W29588  12.168   1.000  13.795
29108W        W29589  12.147   3.466  12.411
29109W        W29590  11.464   3.425  14.045
29110W        W29591  11.576   2.786  11.175
29111W        W29592  14.093   2.544  11.985
29112W        W29593  11.697   1.336  13.871
29113W        W29594  12.215   2.323  11.823
29114W        W29595  13.314   1.705  13.904
29115W        W29596  13.205   1.333  13.448
29116W        W29597  11.765   1.705  13.477
29117W        W29598  13.975   3.593  13.306
29118W        W29599  13.766   0.227  14.300
29119W        W29600  11.430   0.377  13.887
29120W        W29601  11.769   1.400  12.940
29121W        W29602  12.138   1.214  11.062
29122W        W29603  10.941   2.973  13.607
29123W        W29604  12.526   1.682  13.050
29124W        W29605  12.349   0.707  11.155
29125W        W29606  11.484   1.523  11.936
29126W        W29607  11.255   3.375  13.373
29127W        W29608  14.050   1.601  11.481
29128W        W29609  14.145   0.517  14.167
29129W        W29610  13.581   2.726  12.130
29130W        W29611  11.179   1.650  14.307
29131W        W29612  14.145   0.114  11.603
29132W        W29613  13.665   2.589  11.614
29133W        W29614  12.567   1.647  11.699
29134W        W29615  13.754   0.451  11.222
29135W        W29616  13.819   1.058  13.408
29136W        W29617  11.528   1.651  12.615
29137W        W29618  11.822   2.590  12.264
29138W        W29619  13.585   1.210  12.229
29139W        W29620  12.608   0.589  12.925
29140W        W29621  14.570   2.500  13.436
29141W        W29622  14.488   0.487  12.997
29142W        W29623  11.027   3.317  12.373
29143W        W29624  11.536   2.504  11.909
29144W        W29625  11.451   0.121  14.462
29145W        W29626  12.570   2.974  14.564
29146W        W29627  14.325   1.942  12.354
29147W        W29628  13.679   2.119  11.234
29148W        W29629  12.974   3.640  13.446
29149W        W29630  13.831   2.362  14.483
29150W        W29631  12.646   0.072  11.763
29151W        W29632  13.359   0.941  12.622
29152W        W29633  11.045   2.528  12.954
29153W        W29634  12.298   0.490  11.595
29154W        W29635  12.102   1.974  14.444
29155W        W29636  13.096   0.955  12.158
29156W        W29637  13.301   2.365  13.280
29157W        W29638  11.455   2.970  13.715
29158W        W29639  12.046   2.953  14.438
29159W        W29640  11.897   0.750  11.452
29160W        W29641  13.414   0.892  11.777
29161W        W29642  13.372   3.000  14.014
29162W        W29643  12.057   1.592  12.613
29163W        W29644  11.712   3.290  13.478
29164W        W29645  14.457   3.407  11.079
29165W        W29646  11.320   2.079  14.075
29166W        W29647  13.315   2.341  12.763
29167W        W29648  11.751   1.990  12.005
29168W        W29649  12.122   2.997  13.400
29169W        W29650  12.500   0.416  12.441
29170W        W29651  11.111   2.400  11.371
29171W        W29652  12.630   1.351  11.241
29172W        W29653  11.276   1.900  12.260
29173W        W29654  12.566   0.542  13.724
29174W        W29655  14.238   0.251  11.151
29175W        W29656  14.331   1.997  14.250
29176W        W29657  12.985   3.254  14.402
29177W        W29658  14.543   2.348  13.924
29178W        W29659  13.951   3.146  14.535
29179W        W29660  11.690   3.602  13.013
29180W        W29661  14.549   2.224  11.887
29181W        W29662  13.079   1.491  12.400
29182W        W29663  12.846   0.103  12.290
29183W        W29664  11.905   3.087  12.127
29184W        W29665  12.404   0.828  13.352
29185W        W29666  12.104   0.197  12.821
29186W        W29667  11.167   3.019  11.369
29187W        W29668  12.983   2.383  12.087
29188W        W29669  11.858   3.178  13.966
29189W        W29670  11.335   2.001  11.662
29190W        W29671  11.220   0.544  12.661
29191W        W29672  12.768   2.509  12.718
29192W        W29673  11.020   0.363  11.738
29193W        W29674  13.684   1.569  13.665
29194W        W29675  13.561   0.955  11.237
29195W        W29676  14.078   2.627  12.885
29196W        W29677  12.739   3.111  12.716
29197W        W29678  12.151   3.215  11.627
29198W        W29679  13.433   0.118  11.057
29199W        W29680  11.233   3.378  12.798
29200W        W29681  13.430   1.136  14.433
29201W        W29682  11.413   0.666  14.432
29202W        W29683  11.144   1.266  11.765
29203W        W29684  11.835   1.255  11.490
29204W        W29685  13.598   1.582  14.307
29205W        W29686  11.941   1.863  13.016
29206W        W29687  13.415   0.149  12.136
29207W        W29688  12.546   3.580  12.639
29208W        W29689  13.760   3.042  13.576
29209W        W29690  13.344   3.191  12.687
29210W        W29691  13.363   2.171  12.281
29211W        W29692  12.825   0.396  11.352
29212W        W29693  14.506   0.024  12.074
29213W        W29694  12.194   1.659  11.237
29214W        W29695  14.360   0.996  12.227
29215W        W29696  13.052   2.166  11.104
29216W        W29697  13.988   2.366  13.852
29217W        W29698  13.642   3.067  11.319
29218W        W29699  12.257   0.742  14.225
29219W        W29700  12.077   1.326  13.466
29220W        W29701  14.169   2.821  13.743
29221W        W29702  13.269   0.771  14.120
29222W        W29703  11.113   1.242  13.897
29223W        W29704  12.873   1.719  13.623
29224W        W29705  11.230   2.477  12.280
29225W        W29706  11.377   1.774  13.170
29226W        W29707  13.694   2.060  13.520
29227W        W29708  13.466   3.440  14.331
29228W        W29709  13.362   1.179  13.884
29229W        W29710  13.639   3.233  12.289
29230W        W29711  12.641   2.953  13.612
29231W        W29712  12.126   3.308  12.881
29232W        W29713  13.931   2.479  13.300
29233W        W29714  12.981   2.551  14.437
29234W        W29715  11.586   2.504  12.776
29235W        W29716  13.932   2.263  12.421
29236W        W29717  13.573   3.329  13.172
29237W        W29718  11.551   3.058  13.042
29238W        W29719  12.572   1.110  14.252
29239W        W29720  13.023   3.276  11.763
29240W        W29721  12.331   2.531  14.401
29241W        W29722  12.457   2.769  11.778
29242W        W29723  11.678   1.509  11.037
29243W        W29724  11.393   2.488  17.459
29244W        W29725  14.098   2.218  15.229
29245W        W29726  14.228   3.303  17.256
29246W        W29727  12.146   3.294  14.782
29247W        W29728  12.229   1.446  15.765
29248W        W29729  11.744   1.294  15.929
29249W        W29730  12.735   2.109  15.363
29250W        W29731  12.410   3.201  17.718
29251W        W29732  11.059   0.762  17.681
29252W        W29733  11.821   0.042  17.483
29253W        W29734  13.515   0.430  16.370
29254W        W29735  13.164   1.301  14.940
29255W        W29736  11.100   0.527  17.156
29256W        W29737  12.721   2.536  14.909
29257W        W29738  11.153   1.319  16.602
29258W        W29739  14.505   1.069  16.338
29259W        W29740  14.269   2.112  17.197
29260W        W29741  12.577   1.445  16.224
29261W        W29742  13.123   2.784  16.593
29262W        W29743  11.623   2.218  16.825
29263W        W29744  10.982   1.746  16.396
29264W        W29745  12.018   1.718  17.588
29265W        W29746  11.905   2.945  16.287
29266W        W29747  13.026   2.634  17.421
29267W        W29748  12.246   1.274  16.646
29268W        W29749  12.538   2.058  16.289
29269W        W29750  12.595   1.867  17.625
29270W        W29751  13.836   2.793  17.746
29271W        W29752  11.417   0.375  15.744
29272W        W29753  11.944   2.633  16.743
29273W        W29754  14.407   2.416  16.033
29274W        W29755  13.820   0.816  16.600
29275W        W29756  14.105   0.769  14.695
29276W        W29757  14.570   1.570  17.001
29277W        W29758  12.537   3.277  16.754
29278W        W29759  14.311   2.743  15.192
29279W        W29760  11.833   3.575  15.622
29280W        W29761  11.630   0.329  17.048
29281W        W29762  14.253   1.347  17.323
29282W        W29763  13.658   1.769  15.782
29283W        W29764  13.624   1.457  14.809
29284W        W29765  12.832   2.601  16.949
29285W        W29766  13.238   3.018  17.142
29286W        W29767  14.109   1.809  15.564
29287W        W29768  13.011   0.467  15.580
29288W        W29769  11.668   3.161  15.263
29289W        W29770  11.039   0.660  15.862
29290W        W29771  13.825   1.267  16.336
29291W        W29772  11.283   2.884  16.251
29292W        W29773  12.624   3.234  15.121
29293W        W29774  14.016   1.260  14.585
29294W        W29775  11.039   3.018  16.749
29295W        W29776  11.830   2.590  17.229
29296W        W29777  12.203   1.950  15.848
29297W        W29778  12.225   0.355  16.941
29298W        W29779  14.454   0.117  16.238
29299W        W29780  11.673   1.989  14.706
29300W        W29781  11.328   1.022  14.885
29301W        W29782  11.390   2.978  15.679
29302W        W29783  12.521   2.461  15.927
29303W        W29784  13.853   3.320  17.641
29304W        W29785  12.779   0.962  15.325
29305W        W29786  14.162   3.360  16.097
29306W        W29787  14.552   2.869  15.829
29307W        W29788  13.179   2.161  17.313
29308W        W29789  10.945   1.712  15.519
29309W        W29790  12.056   2.127  17.092
29310W        W29791  13.260   1.391  15.470
29311W        W29792  13.137   1.881  15.574
29312W        W29793  11.480   1.301  17.048
29313W        W29794  11.355   0.094  16.129
29314W        W29795  13.123   0.441  16.690
29315W        W29796  13.126   0.775  15.031
29316W        W29797  14.309   3.168  17.785
29317W        W29798  13.725   0.717  17.542
29318W        W29799  13.525   0.655  15.812
29319W        W29800  11.658   3.365  16.202
29320W        W29801  12.316   1.082  15.188
29321W        W29802  13.937   0.850  15.533
29322W        W29803  14.304   1.332  15.478
29323W        W29804  11.973   0.085  15.184
29324W        W29805  14.294   0.619  16.219
29325W        W29806  14.444   2.868  14.664
29326W        W29807  11.351   2.071  16.366
29327W        W29808  13.268   0.658  14.596
29328W        W29809  14.402   2.990  16.316
29329W        W29810  14.441   0.184  17.066
29330W        W29811  12.886   1.396  17.620
29331W        W29812  12.979   2.735  15.323
29332W        W29813  13.053   0.006  16.372
29333W        W29814  11.665   0.909  16.435
29334W        W29815  11.219   2.109  17.209
29335W        W29816  13.078   3.302  15.915
29336W        W29817  14.272   0.899  16.787
29337W        W29818  12.909   3.246  17.554
29338W        W29819  14.252   2.305  14.759
29339W        W29820  12.687   1.788  15.820
29340W        W29821  14.539   0.299  17.561
29341W        W29822  12.688   2.134  17.155
29342W        W29823  12.905   1.020  16.600
29343W        W29824  13.757   1.318  15.438
29344W        W29825  14.044   1.051  15.080
29345W        W29826  13.853   3.091  15.469
29346W        W29827  13.583   1.773  15.243
29347W        W29828  13.016   1.983  16.229
29348W        W29829  13.897   1.771  16.296
29349W        W29830  11.272   0.786  16.720
29350W        W29831  14.050   1.838  17.547
29351W        W29832  14.401   3.456  16.693
29352W        W29833  12.331   2.900  16.095
29353W        W29834  13.338   3.433  17.419
29354W        W29835  13.332   0.763  17.183
29355W        W29836  12.539   3.471  17.244
29356W        W29837  14.236   0.425  15.710
29357W        W29838  14.027   1.744  17.011
29358W        W29839  11.010   1.065  17.049
29359W        W29840  13.870   0.860  16.067
29360W        W29841  13.166   2.710  16.062
29361W        W29842  12.422   3.301  15.675
29362W        W29843  11.537   0.481  14.933
29363W        W29844  12.641   0.135  16.743
29364W        W29845  12.043   1.721  15.342
29365W        W29846  12.697   2.350  17.655
29366W        W29847  12.527   0.708  15.645
29367W        W29848  13.883   0.305  16.073
29368W        W29849  13.603   3.587  16.401
29369W        W29850  13.015   3.235  16.741
29370W        W29851  12.411   2.272  16.702
29371W        W29852  14.181   2.995  16.828
29372W        W29853  11.875   0.498  15.597
29373W        W29854  12.397   2.795  16.557
29374W        W29855  11.880   0.726  14.622
29375W        W29856  12.681   1.335  17.016
29376W        W29857  13.529   0.201  16.886
29377W        W29858  10.949   2.044  16.771
29378W        W29859  11.921   0.177  14.699
29379W        W29860  12.659   1.258  15.750
29380W        W29861  13.629   0.234  17.449
29381W        W29862  12.217   2.246  17.558
29382W        W29863  13.638   2.058  17.668
29383W        W29864  12.144   0.814  16.566
29384W        W29865  11.570   0.770  15.964
29385W        W29866  11.356   3.482  15.640
29386W        W29867  12.688   2.812  17.765
29387W        W29868  11.723   2.297  15.124
29388W        W29869  13.403   1.682  16.345
29389W        W29870  13.683   1.481  16.744
29390W        W29871  12.888   2.155  16.678
29391W        W29872  13.358   2.529  14.810
29392W        W29873  13.030   0.550  16.138
29393W        W29874  14.509   0.828  15.406
29394W        W29875  11.003   3.417  17.437
29395W        W29876  11.420   2.643  16.969
29396W        W29877  10.987   3.489  15.201
29397W        W29878  12.886   0.759  17.007
29398W        W29879  12.249   2.782  14.856
29399W        W29880  14.154   3.164  15.042
29400W        W29881  13.129   1.817  15.056
29401W        W29882  11.972   1.008  15.573
29402W        W29883  12.804   0.918  14.625
29403W        W29884  13.741   0.389  15.420
29404W        W29885  11.071   0.237  14.868
29405W        W29886  12.357   2.556  17.158
29406W        W29887  12.156   2.472  16.250
29407W        W29888  11.898   2.424  14.648
29408W        W29889  11.139   2.665  15.416
29409W        W29890  13.056   0.437  17.400
29410W        W29891  12.251   0.205  15.681
29411W        W29892  13.310   0.282  15.186
29412W        W29893  11.255   0.214  16.763
29413W        W29894  11.303   1.177  16.133
29414W        W29895  13.992   0.285  16.539
29415W        W29896  11.414   0.783  15.353
29416W        W29897  13.985   0.471  16.969
29417W        W29898  14.381   1.674  14.654
29418W        W29899  12.787   1.004  17.413
29419W        W29900  10.935   0.694  14.891
29420W        W29901  11.721   2.083  17.452
29421W        W29902  13.079   1.481  16.631
29422W        W29903  12.946   3.560  14.927
29423W        W29904  11.092   2.067  14.624
29424W        W29905  11.348   1.645  17.381
29425W        W29906  12.339   1.750  17.175
29426W        W29907  14.107   0.109  17.437
29427W        W29908  14.505   1.719  17.428
29428W        W29909  14.493   1.919  15.114
29429W        W29910  13.356   2.251  15.213
29430W        W29911  13.830   3.551  14.908
29431W        W29912  14.261   1.358  16.663
29432W        W29913  12.424   0.117  14.867
29433W        W29914  13.963   2.716  14.810
29434W        W29915  12.166   2.803  17.558
29435W        W29916  14.292   0.794  17.356
29436W        W29917  13.503   3.453  15.324
29437W        W29918  13.742   2.072  16.691
29438W        W29919  11.964   2.736  15.309
29439W        W29920  13.719   2.234  15.573
29440W        W29921  11.487   0.860  17.297
29441W        W29922  12.816   2.922  15.761
29442W        W29923  14.566   1.482  15.942
29443W        W29924  12.788   0.115  17.661
29444W        W29925  13.568   2.820  16.740
29445W        W29926  13.871   3.164  16.448
29446W        W29927  13.090   2.966  14.876
29447W        W29928  11.100   2.858  17.718
29448W        W29929  11.843   0.850  16.956
29449W        W29930  11.813   0.198  16.066
29450W        W29931  13.434   1.040  16.758
29451W        W29932  12.232   2.211  14.958
29452W        W29933  14.230   2.153  16.457
29453W        W29934  13.944   3.593  15.677
29454W        W29935  12.043   0.613  16.122
29455W        W29936  11.812   2.106  16.212
29456W        W29937  12.125   3.517  16.962
29457W        W29938  13.351   1.801  16.927
29458W        W29939  11.200   1.599  14.842
29459W        W29940  14.334   3.257  15.539
29460W        W29941  14.171   0.581  15.158
29461W        W29942  12.310   0.100  17.561
29462W        W29943  14.016   2.902  16.019
29463W        W29944  14.045   1.458  15.924
29464W        W29945  12.162   1.131  16.140
29465W        W29946  12.407   1.393  17.464
29466W        W29947  13.518   2.546  17.327
29467W        W29948  12.168   1.000  17.439
29468W        W29949  12.147   3.466  16.055
29469W        W29950  11.576   2.786  14.819
29470W        W29951  14.093   2.544  15.629
29471W        W29952  11.697   1.336  17.515
29472W        W29953  14.470   1.266  14.996
29473W        W29954  12.215   2.323  15.467
29474W        W29955  13.314   1.705  17.548
29475W        W29956  13.205   1.333  17.092
29476W        W29957  11.765   1.705  17.121
29477W        W29958  13.975   3.593  16.950
29478W        W29959  11.430   0.377  17.531
29479W        W29960  11.769   1.400  16.584
29480W        W29961  12.138   1.214  14.706
29481W        W29962  10.941   2.973  17.251
29482W        W29963  12.526   1.682  16.694
29483W        W29964  12.349   0.707  14.799
29484W        W29965  11.484   1.523  15.580
29485W        W29966  11.255   3.375  17.017
29486W        W29967  14.050   1.601  15.125
29487W        W29968  13.581   2.726  15.774
29488W        W29969  14.145   0.114  15.247
29489W        W29970  13.665   2.589  15.258
29490W        W29971  12.567   1.647  15.343
29491W        W29972  13.754   0.451  14.866
29492W        W29973  13.819   1.058  17.052
29493W        W29974  11.528   1.651  16.259
29494W        W29975  11.822   2.590  15.908
29495W        W29976  13.585   1.210  15.873
29496W        W29977  12.608   0.589  16.569
29497W        W29978  14.570   2.500  17.080
29498W        W29979  14.488   0.487  16.641
29499W        W29980  11.027   3.317  16.017
29500W        W29981  11.536   2.504  15.553
29501W        W29982  14.325   1.942  15.998
29502W        W29983  13.679   2.119  14.878
29503W        W29984  12.974   3.640  17.090
29504W        W29985  12.646   0.072  15.407
29505W        W29986  13.359   0.941  16.266
29506W        W29987  11.045   2.528  16.598
29507W        W29988  12.298   0.490  15.239
29508W        W29989  13.096   0.955  15.802
29509W        W29990  13.301   2.365  16.924
29510W        W29991  11.455   2.970  17.359
29511W        W29992  11.897   0.750  15.096
29512W        W29993  13.414   0.892  15.421
29513W        W29994  13.372   3.000  17.658
29514W        W29995  12.057   1.592  16.257
29515W        W29996  11.712   3.290  17.122
29516W        W29997  14.457   3.407  14.723
29517W        W29998  13.315   2.341  16.407
29518W        W29999  11.751   1.990  15.649
29519W        W30000  12.122   2.997  17.044
29520W        W30001  12.500   0.416  16.085
29521W        W30002  11.111   2.400  15.015
29522W        W30003  12.630   1.351  14.885
29523W        W30004  11.276   1.900  15.904
29524W        W30005  12.566   0.542  17.368
29525W        W30006  14.238   0.251  14.795
29526W        W30007  14.543   2.348  17.568
29527W        W30008  11.690   3.602  16.657
29528W        W30009  14.549   2.224  15.531
29529W        W30010  13.079   1.491  16.044
29530W        W30011  11.905   3.087  15.771
29531W        W30012  12.404   0.828  16.996
29532W        W30013  12.104   0.197  16.465
29533W        W30014  11.167   3.019  15.013
29534W        W30015  12.983   2.383  15.731
29535W        W30016  11.858   3.178  17.610
29536W        W30017  11.335   2.001  15.306
29537W        W30018  11.220   0.544  16.305
29538W        W30019  12.768   2.509  16.362
29539W        W30020  11.020   0.363  15.382
29540W        W30021  13.684   1.569  17.309
29541W        W30022  13.561   0.955  14.881
29542W        W30023  14.078   2.627  16.529
29543W        W30024  12.739   3.111  16.360
29544W        W30025  12.151   3.215  15.271
29545W        W30026  13.433   0.118  14.701
29546W        W30027  11.233   3.378  16.442
29547W        W30028  11.144   1.266  15.409
29548W        W30029  11.835   1.255  15.134
29549W        W30030  11.941   1.863  16.660
29550W        W30031  13.415   0.149  15.780
29551W        W30032  12.546   3.580  16.283
29552W        W30033  13.760   3.042  17.220
29553W        W30034  13.344   3.191  16.331
29554W        W30035  13.363   2.171  15.925
29555W        W30036  14.506   0.024  15.718
29556W        W30037  12.194   1.659  14.881
29557W        W30038  14.360   0.996  15.871
29558W        W30039  13.052   2.166  14.748
29559W        W30040  13.988   2.366  17.496
29560W        W30041  13.642   3.067  14.963
29561W        W30042  12.077   1.326  17.110
29562W        W30043  14.169   2.821  17.387
29563W        W30044  11.113   1.242  17.541
29564W        W30045  12.873   1.719  17.267
29565W        W30046  11.230   2.477  15.924
29566W        W30047  11.377   1.774  16.814
29567W        W30048  13.694   2.060  17.164
29568W        W30049  13.466   3.440  17.975
29569W        W30050  13.362   1.179  17.528
29570W        W30051  13.639   3.233  15.933
29571W        W30052  12.641   2.953  17.256
29572W        W30053  12.126   3.308  16.525
29573W        W30054  13.931   2.479  16.944
29574W        W30055  11.586   2.504  16.420
29575W        W30056  13.932   2.263  16.065
29576W        W30057  13.573   3.329  16.816
29577W        W30058  11.551   3.058  16.686
29578W        W30059  13.023   3.276  15.407
29579W        W30060  11.678   1.509  14.681
29580W        W30061  11.017   7.239   3.359
29581W        W30062  11.393   6.132   2.882
29582W        W30063  14.098   5.862   0.652
29583W        W30064  14.228   6.947   2.679
29584W        W30065  12.146   6.938   0.205
29585W        W30066  12.229   5.090   1.188
29586W        W30067  11.744   4.938   1.352
29587W        W30068  12.735   5.753   0.786
29588W        W30069  12.410   6.845   3.141
29589W        W30070  11.059   4.406   3.104
29590W        W30071  11.821   3.686   2.906
29591W        W30072  13.515   4.074   1.793
29592W        W30073  13.164   4.945   0.363
29593W        W30074  13.734   4.379   3.454
29594W        W30075  11.100   4.171   2.579
29595W        W30076  11.199   6.790   3.600
29596W        W30077  12.721   6.180   0.332
29597W        W30078  11.153   4.963   2.025
29598W        W30079  12.046   4.854   3.262
29599W        W30080  14.505   4.713   1.761
29600W        W30081  14.269   5.756   2.620
29601W        W30082  12.577   5.089   1.647
29602W        W30083  13.123   6.428   2.016
29603W        W30084  11.623   5.862   2.248
29604W        W30085  10.982   5.390   1.819
29605W        W30086  12.018   5.362   3.011
29606W        W30087  11.905   6.589   1.710
29607W        W30088  13.026   6.278   2.844
29608W        W30089  12.246   4.918   2.069
29609W        W30090  12.538   5.702   1.712
29610W        W30091  13.535   6.475   3.560
29611W        W30092  12.614   5.795   3.570
29612W        W30093  12.595   5.511   3.048
29613W        W30094  11.004   4.902   3.570
29614W        W30095  13.836   6.437   3.169
29615W        W30096  11.417   4.019   1.167
29616W        W30097  11.944   6.277   2.166
29617W        W30098  14.407   6.060   1.456
29618W        W30099  13.820   4.460   2.023
29619W        W30100  14.105   4.413   0.118
29620W        W30101  14.570   5.214   2.424
29621W        W30102  12.537   6.921   2.177
29622W        W30103  14.311   6.387   0.615
29623W        W30104  11.440   7.173   0.369
29624W        W30105  11.833   7.219   1.045
29625W        W30106  11.630   3.973   2.471
29626W        W30107  14.253   4.991   2.746
29627W        W30108  13.658   5.413   1.205
29628W        W30109  13.624   5.101   0.232
29629W        W30110  12.832   6.245   2.372
29630W        W30111  12.638   4.575   1.571
29631W        W30112  13.238   6.662   2.565
29632W        W30113  14.109   5.453   0.987
29633W        W30114  13.011   4.111   1.003
29634W        W30115  11.668   6.805   0.686
29635W        W30116  11.039   4.304   1.285
29636W        W30117  13.825   4.911   1.759
29637W        W30118  11.283   6.528   1.674
29638W        W30119  12.624   6.878   0.544
29639W        W30120  14.016   4.904   0.008
29640W        W30121  11.039   6.662   2.172
29641W        W30122  11.830   6.234   2.652
29642W        W30123  12.203   5.594   1.271
29643W        W30124  12.225   3.999   2.364
29644W        W30125  14.454   3.761   1.661
29645W        W30126  11.673   5.633   0.129
29646W        W30127  11.328   4.666   0.308
29647W        W30128  11.390   6.622   1.102
29648W        W30129  12.521   6.105   1.350
29649W        W30130  13.853   6.964   3.064
29650W        W30131  12.779   4.606   0.748
29651W        W30132  14.162   7.004   1.520
29652W        W30133  13.839   4.857   3.118
29653W        W30134  14.552   6.513   1.252
29654W        W30135  13.179   5.805   2.736
29655W        W30136  10.945   5.356   0.942
29656W        W30137  12.056   5.771   2.515
29657W        W30138  13.260   5.035   0.893
29658W        W30139  13.137   5.525   0.997
29659W        W30140  11.480   4.945   2.471
29660W        W30141  11.465   4.821   3.393
29661W        W30142  11.355   3.738   1.552
29662W        W30143  13.123   4.085   2.113
29663W        W30144  13.126   4.419   0.454
29664W        W30145  14.309   6.812   3.208
29665W        W30146  13.276   3.893   3.247
29666W        W30147  14.295   6.194   3.369
29667W        W30148  13.725   4.361   2.965
29668W        W30149  13.525   4.299   1.235
29669W        W30150  13.918   5.433   3.639
29670W        W30151  11.658   7.009   1.625
29671W        W30152  12.316   4.726   0.611
29672W        W30153  11.885   4.010   3.275
29673W        W30154  13.937   4.494   0.956
29674W        W30155  14.304   4.976   0.901
29675W        W30156  12.047   7.193   3.372
29676W        W30157  11.973   3.729   0.607
29677W        W30158  14.294   4.263   1.642
29678W        W30159  14.444   6.512   0.087
29679W        W30160  11.351   5.715   1.789
29680W        W30161  13.268   4.302   0.019
29681W        W30162  14.402   6.634   1.739
29682W        W30163  14.441   3.828   2.489
29683W        W30164  12.886   5.040   3.043
29684W        W30165  12.979   6.379   0.746
29685W        W30166  13.379   5.673   3.486
29686W        W30167  13.053   3.650   1.795
29687W        W30168  11.665   4.553   1.858
29688W        W30169  11.219   5.753   2.632
29689W        W30170  13.078   6.946   1.338
29690W        W30171  14.272   4.543   2.210
29691W        W30172  14.252   5.949   0.182
29692W        W30173  12.687   5.432   1.243
29693W        W30174  14.539   3.943   2.984
29694W        W30175  12.688   5.778   2.578
29695W        W30176  12.905   4.664   2.023
29696W        W30177  13.757   4.962   0.861
29697W        W30178  14.044   4.695   0.503
29698W        W30179  13.853   6.735   0.892
29699W        W30180  13.687   6.338   1.688
29700W        W30181  13.583   5.417   0.666
29701W        W30182  13.016   5.627   1.652
29702W        W30183  13.897   5.415   1.719
29703W        W30184  11.272   4.430   2.143
29704W        W30185  14.050   5.482   2.970
29705W        W30186  14.401   7.100   2.116
29706W        W30187  12.331   6.544   1.518
29707W        W30188  13.338   7.077   2.842
29708W        W30189  13.332   4.407   2.606
29709W        W30190  12.539   7.115   2.667
29710W        W30191  14.236   4.069   1.133
29711W        W30192  14.027   5.388   2.434
29712W        W30193  11.010   4.709   2.472
29713W        W30194  13.870   4.504   1.490
29714W        W30195  14.281   4.655   3.267
29715W        W30196  13.166   6.354   1.485
29716W        W30197  12.422   6.945   1.098
29717W        W30198  11.537   4.125   0.356
29718W        W30199  12.641   3.779   2.166
29719W        W30200  11.669   6.899   0.014
29720W        W30201  12.043   5.365   0.765
29721W        W30202  12.697   5.994   3.078
29722W        W30203  12.527   4.352   1.068
29723W        W30204  13.883   3.949   1.496
29724W        W30205  13.603   7.231   1.824
29725W        W30206  13.015   6.879   2.164
29726W        W30207  12.411   5.916   2.125
29727W        W30208  14.181   6.639   2.251
29728W        W30209  11.875   4.142   1.020
29729W        W30210  12.397   6.439   1.980
29730W        W30211  11.880   4.370   0.045
29731W        W30212  12.681   4.979   2.439
29732W        W30213  13.529   3.845   2.309
29733W        W30214  10.949   5.688   2.194
29734W        W30215  12.653   5.506   0.352
29735W        W30216  12.659   4.902   1.173
29736W        W30217  13.629   3.878   2.872
29737W        W30218  12.217   5.890   2.981
29738W        W30219  13.021   5.672   3.198
29739W        W30220  13.638   5.702   3.091
29740W        W30221  12.922   3.842   3.596
29741W        W30222  12.144   4.458   1.989
29742W        W30223  11.570   4.414   1.387
29743W        W30224  11.356   7.126   1.063
29744W        W30225  12.688   6.456   3.188
29745W        W30226  11.723   5.941   0.547
29746W        W30227  13.403   5.326   1.768
29747W        W30228  13.683   5.125   2.167
29748W        W30229  12.888   5.799   2.101
29749W        W30230  13.358   6.173   0.233
29750W        W30231  13.030   4.194   1.561
29751W        W30232  14.509   4.472   0.829
29752W        W30233  11.003   7.061   2.860
29753W        W30234  11.420   6.287   2.392
29754W        W30235  10.987   7.133   0.624
29755W        W30236  12.886   4.403   2.430
29756W        W30237  12.249   6.426   0.279
29757W        W30238  14.154   6.808   0.465
29758W        W30239  13.129   5.461   0.479
29759W        W30240  11.972   4.652   0.996
29760W        W30241  12.804   4.562   0.048
29761W        W30242  13.388   6.127   3.226
29762W        W30243  13.741   4.033   0.843
29763W        W30244  11.071   3.881   0.291
29764W        W30245  12.357   6.200   2.581
29765W        W30246  12.156   6.116   1.673
29766W        W30247  11.898   6.068   0.071
29767W        W30248  11.139   6.309   0.839
29768W        W30249  11.643   5.379   3.281
29769W        W30250  12.347   3.939   3.467
29770W        W30251  13.056   4.081   2.823
29771W        W30252  12.251   3.849   1.104
29772W        W30253  13.310   3.926   0.609
29773W        W30254  11.255   3.858   2.186
29774W        W30255  11.303   4.821   1.556
29775W        W30256  13.992   3.929   1.962
29776W        W30257  11.414   4.427   0.776
29777W        W30258  13.985   4.115   2.392
29778W        W30259  14.381   5.318   0.077
29779W        W30260  11.673   4.076   1.896
29780W        W30261  12.787   4.648   2.836
29781W        W30262  10.935   4.338   0.314
29782W        W30263  11.721   5.727   2.875
29783W        W30264  13.079   5.125   2.054
29784W        W30265  12.946   7.204   0.350
29785W        W30266  11.092   5.711   0.047
29786W        W30267  11.827   6.122   3.173
29787W        W30268  11.348   5.289   2.804
29788W        W30269  12.339   5.394   2.598
29789W        W30270  14.107   3.753   2.860
29790W        W30271  14.505   5.363   2.851
29791W        W30272  14.493   5.563   0.537
29792W        W30273  13.356   5.895   0.636
29793W        W30274  13.830   7.195   0.331
29794W        W30275  13.007   5.185   3.473
29795W        W30276  11.337   6.152   3.513
29796W        W30277  14.543   4.074   3.465
29797W        W30278  14.261   5.002   2.086
29798W        W30279  12.569   7.132   3.563
29799W        W30280  12.424   3.761   0.290
29800W        W30281  13.963   6.360   0.233
29801W        W30282  11.732   4.453   3.119
29802W        W30283  12.166   6.447   2.981
29803W        W30284  14.292   4.438   2.779
29804W        W30285  13.503   7.097   0.747
29805W        W30286  11.992   4.132   2.781
29806W        W30287  12.461   5.201   3.538
29807W        W30288  11.964   6.380   0.732
29808W        W30289  11.487   4.504   2.720
29809W        W30290  12.816   6.566   1.184
29810W        W30291  14.566   5.126   1.365
29811W        W30292  12.788   3.759   3.084
29812W        W30293  13.568   6.464   2.163
29813W        W30294  13.871   6.808   1.871
29814W        W30295  13.090   6.610   0.299
29815W        W30296  11.100   6.502   3.141
29816W        W30297  11.843   4.494   2.379
29817W        W30298  11.813   3.842   1.489
29818W        W30299  13.434   4.684   2.181
29819W        W30300  12.232   5.855   0.381
29820W        W30301  14.230   5.797   1.880
29821W        W30302  11.557   6.555   3.303
29822W        W30303  13.944   7.237   1.100
29823W        W30304  12.043   4.257   1.545
29824W        W30305  11.812   5.750   1.635
29825W        W30306  12.125   7.161   2.385
29826W        W30307  14.192   7.257   3.417
29827W        W30308  13.351   5.445   2.350
29828W        W30309  11.200   5.243   0.265
29829W        W30310  14.334   6.901   0.962
29830W        W30311  14.171   4.225   0.581
29831W        W30312  12.310   3.744   2.984
29832W        W30313  14.016   6.546   1.442
29833W        W30314  14.045   5.102   1.347
29834W        W30315  12.162   4.775   1.563
29835W        W30316  12.407   5.037   2.887
29836W        W30317  13.518   6.190   2.750
29837W        W30318  12.168   4.644   2.862
29838W        W30319  12.147   7.110   1.478
29839W        W30320  11.464   7.069   3.112
29840W        W30321  11.576   6.430   0.242
29841W        W30322  14.093   6.188   1.052
29842W        W30323  11.697   4.980   2.938
29843W        W30324  14.470   4.910   0.419
29844W        W30325  12.215   5.967   0.890
29845W        W30326  13.314   5.349   2.971
29846W        W30327  13.205   4.977   2.515
29847W        W30328  11.765   5.349   2.544
29848W        W30329  13.975   7.237   2.373
29849W        W30330  13.766   3.871   3.367
29850W        W30331  11.430   4.021   2.954
29851W        W30332  11.769   5.044   2.007
29852W        W30333  12.138   4.858   0.129
29853W        W30334  10.941   6.617   2.674
29854W        W30335  12.526   5.326   2.117
29855W        W30336  12.349   4.351   0.222
29856W        W30337  11.484   5.167   1.003
29857W        W30338  11.255   7.019   2.440
29858W        W30339  14.050   5.245   0.548
29859W        W30340  14.145   4.161   3.234
29860W        W30341  13.581   6.370   1.197
29861W        W30342  11.179   5.294   3.374
29862W        W30343  14.145   3.758   0.670
29863W        W30344  13.665   6.233   0.681
29864W        W30345  12.567   5.291   0.766
29865W        W30346  13.754   4.095   0.289
29866W        W30347  13.819   4.702   2.475
29867W        W30348  11.528   5.295   1.682
29868W        W30349  11.822   6.234   1.331
29869W        W30350  13.585   4.854   1.296
29870W        W30351  12.608   4.233   1.992
29871W        W30352  14.570   6.144   2.503
29872W        W30353  14.488   4.131   2.064
29873W        W30354  11.027   6.961   1.440
29874W        W30355  11.536   6.148   0.976
29875W        W30356  11.451   3.765   3.529
29876W        W30357  12.570   6.618   3.631
29877W        W30358  14.325   5.586   1.421
29878W        W30359  13.679   5.763   0.301
29879W        W30360  12.974   7.284   2.513
29880W        W30361  13.831   6.006   3.550
29881W        W30362  12.646   3.716   0.830
29882W        W30363  13.359   4.585   1.689
29883W        W30364  11.045   6.172   2.021
29884W        W30365  12.298   4.134   0.662
29885W        W30366  12.102   5.618   3.511
29886W        W30367  13.096   4.599   1.225
29887W        W30368  13.301   6.009   2.347
29888W        W30369  12.046   6.597   3.505
29889W        W30370  11.897   4.394   0.519
29890W        W30371  13.414   4.536   0.844
29891W        W30372  13.372   6.644   3.081
29892W        W30373  12.057   5.236   1.680
29893W        W30374  11.712   6.934   2.545
29894W        W30375  14.457   7.051   0.146
29895W        W30376  11.320   5.723   3.142
29896W        W30377  13.315   5.985   1.830
29897W        W30378  11.751   5.634   1.072
29898W        W30379  12.122   6.641   2.467
29899W        W30380  12.500   4.060   1.508
29900W        W30381  11.111   6.044   0.438
29901W        W30382  12.630   4.995   0.308
29902W        W30383  11.276   5.544   1.327
29903W        W30384  12.566   4.186   2.791
29904W        W30385  14.238   3.895   0.218
29905W        W30386  14.331   5.641   3.317
29906W        W30387  12.985   6.898   3.469
29907W        W30388  14.543   5.992   2.991
29908W        W30389  13.951   6.790   3.602
29909W        W30390  11.690   7.246   2.080
29910W        W30391  14.549   5.868   0.954
29911W        W30392  13.079   5.135   1.467
29912W        W30393  12.846   3.747   1.357
29913W        W30394  11.905   6.731   1.194
29914W        W30395  12.404   4.472   2.419
29915W        W30396  12.104   3.841   1.888
29916W        W30397  11.167   6.663   0.436
29917W        W30398  12.983   6.027   1.154
29918W        W30399  11.858   6.822   3.033
29919W        W30400  11.335   5.645   0.729
29920W        W30401  11.220   4.188   1.728
29921W        W30402  12.768   6.153   1.785
29922W        W30403  11.020   4.007   0.805
29923W        W30404  13.684   5.213   2.732
29924W        W30405  13.561   4.599   0.304
29925W        W30406  14.078   6.271   1.952
29926W        W30407  12.739   6.755   1.783
29927W        W30408  12.151   6.859   0.694
29928W        W30409  11.233   7.022   1.865
29929W        W30410  13.430   4.780   3.500
29930W        W30411  11.413   4.310   3.499
29931W        W30412  11.144   4.910   0.832
29932W        W30413  11.835   4.899   0.557
29933W        W30414  13.598   5.226   3.374
29934W        W30415  11.941   5.507   2.083
29935W        W30416  13.415   3.793   1.203
29936W        W30417  12.546   7.224   1.706
29937W        W30418  13.760   6.686   2.643
29938W        W30419  13.344   6.835   1.754
29939W        W30420  13.363   5.815   1.348
29940W        W30421  12.825   4.040   0.419
29941W        W30422  14.506   3.668   1.141
29942W        W30423  12.194   5.303   0.304
29943W        W30424  14.360   4.640   1.294
29944W        W30425  13.052   5.810   0.171
29945W        W30426  13.988   6.010   2.919
29946W        W30427  13.642   6.711   0.386
29947W        W30428  12.257   4.386   3.292
29948W        W30429  12.077   4.970   2.533
29949W        W30430  14.169   6.465   2.810
29950W        W30431  13.269   4.415   3.187
29951W        W30432  11.113   4.886   2.964
29952W        W30433  12.873   5.363   2.690
29953W        W30434  11.230   6.121   1.347
29954W        W30435  11.377   5.418   2.237
29955W        W30436  13.694   5.704   2.587
29956W        W30437  13.466   7.084   3.398
29957W        W30438  13.362   4.823   2.951
29958W        W30439  13.639   6.877   1.356
29959W        W30440  12.641   6.597   2.679
29960W        W30441  13.931   6.123   2.367
29961W        W30442  12.981   6.195   3.504
29962W        W30443  11.586   6.148   1.843
29963W        W30444  13.932   5.907   1.488
29964W        W30445  13.573   6.973   2.239
29965W        W30446  11.551   6.702   2.109
29966W        W30447  12.572   4.754   3.319
29967W        W30448  13.023   6.920   0.830
29968W        W30449  12.331   6.175   3.468
29969W        W30450  12.457   6.413   0.845
29970W        W30451  11.678   5.153   0.104
29971W        W30452  11.017   7.239   7.003
29972W        W30453  11.393   6.132   6.526
29973W        W30454  14.098   5.862   4.296
29974W        W30455  14.228   6.947   6.323
29975W        W30456  12.146   6.938   3.849
29976W        W30457  12.229   5.090   4.832
29977W        W30458  11.744   4.938   4.996
29978W        W30459  12.735   5.753   4.430
29979W        W30460  12.410   6.845   6.785
29980W        W30461  11.059   4.406   6.748
29981W        W30462  11.821   3.686   6.550
29982W        W30463  13.515   4.074   5.437
29983W        W30464  13.164   4.945   4.007
29984W        W30465  13.734   4.379   7.098
29985W        W30466  11.100   4.171   6.223
29986W        W30467  11.199   6.790   7.244
29987W        W30468  12.721   6.180   3.976
29988W        W30469  12.046   4.854   6.906
29989W        W30470  14.505   4.713   5.405
29990W        W30471  14.269   5.756   6.264
29991W        W30472  12.577   5.089   5.291
29992W        W30473  13.123   6.428   5.660
29993W        W30474  11.623   5.862   5.892
29994W        W30475  10.982   5.390   5.463
29995W        W30476  12.018   5.362   6.655
29996W        W30477  14.289   5.145   6.909
29997W        W30478  11.905   6.589   5.354
29998W        W30479  13.026   6.278   6.488
29999W        W30480  12.246   4.918   5.713
30000W        W30481  12.538   5.702   5.356
30001W        W30482  12.614   5.795   7.214
30002W        W30483  12.595   5.511   6.692
30003W        W30484  11.004   4.902   7.214
30004W        W30485  13.836   6.437   6.813
30005W        W30486  11.417   4.019   4.811
30006W        W30487  11.944   6.277   5.810
30007W        W30488  14.407   6.060   5.100
30008W        W30489  13.820   4.460   5.667
30009W        W30490  14.105   4.413   3.762
30010W        W30491  14.570   5.214   6.068
30011W        W30492  12.537   6.921   5.821
30012W        W30493  14.311   6.387   4.259
30013W        W30494  11.440   7.173   4.013
30014W        W30495  11.833   7.219   4.689
30015W        W30496  11.630   3.973   6.115
30016W        W30497  14.253   4.991   6.390
30017W        W30498  13.658   5.413   4.849
30018W        W30499  13.624   5.101   3.876
30019W        W30500  12.832   6.245   6.016
30020W        W30501  12.638   4.575   5.215
30021W        W30502  13.238   6.662   6.209
30022W        W30503  14.109   5.453   4.631
30023W        W30504  13.011   4.111   4.647
30024W        W30505  11.668   6.805   4.330
30025W        W30506  11.039   4.304   4.929
30026W        W30507  13.825   4.911   5.403
30027W        W30508  11.283   6.528   5.318
30028W        W30509  12.624   6.878   4.188
30029W        W30510  14.016   4.904   3.652
30030W        W30511  11.039   6.662   5.816
30031W        W30512  11.830   6.234   6.296
30032W        W30513  12.203   5.594   4.915
30033W        W30514  12.225   3.999   6.008
30034W        W30515  14.454   3.761   5.305
30035W        W30516  11.673   5.633   3.773
30036W        W30517  11.328   4.666   3.952
30037W        W30518  11.390   6.622   4.746
30038W        W30519  12.521   6.105   4.994
30039W        W30520  12.779   4.606   4.392
30040W        W30521  14.162   7.004   5.164
30041W        W30522  13.839   4.857   6.762
30042W        W30523  14.552   6.513   4.896
30043W        W30524  13.179   5.805   6.380
30044W        W30525  10.945   5.356   4.586
30045W        W30526  12.056   5.771   6.159
30046W        W30527  13.260   5.035   4.537
30047W        W30528  13.137   5.525   4.641
30048W        W30529  11.480   4.945   6.115
30049W        W30530  11.465   4.821   7.037
30050W        W30531  11.355   3.738   5.196
30051W        W30532  13.123   4.085   5.757
30052W        W30533  12.771   4.270   6.920
30053W        W30534  13.126   4.419   4.098
30054W        W30535  14.309   6.812   6.852
30055W        W30536  13.276   3.893   6.891
30056W        W30537  14.295   6.194   7.013
30057W        W30538  13.725   4.361   6.609
30058W        W30539  13.525   4.299   4.879
30059W        W30540  13.918   5.433   7.283
30060W        W30541  11.658   7.009   5.269
30061W        W30542  12.316   4.726   4.255
30062W        W30543  11.885   4.010   6.919
30063W        W30544  13.937   4.494   4.600
30064W        W30545  14.304   4.976   4.545
30065W        W30546  12.047   7.193   7.016
30066W        W30547  11.973   3.729   4.251
30067W        W30548  14.294   4.263   5.286
30068W        W30549  14.444   6.512   3.731
30069W        W30550  11.351   5.715   5.433
30070W        W30551  13.268   4.302   3.663
30071W        W30552  14.402   6.634   5.383
30072W        W30553  14.441   3.828   6.133
30073W        W30554  12.886   5.040   6.687
30074W        W30555  12.979   6.379   4.390
30075W        W30556  13.379   5.673   7.130
30076W        W30557  13.053   3.650   5.439
30077W        W30558  11.665   4.553   5.502
30078W        W30559  11.219   5.753   6.276
30079W        W30560  13.078   6.946   4.982
30080W        W30561  14.272   4.543   5.854
30081W        W30562  12.909   6.890   6.621
30082W        W30563  14.252   5.949   3.826
30083W        W30564  12.687   5.432   4.887
30084W        W30565  14.539   3.943   6.628
30085W        W30566  12.688   5.778   6.222
30086W        W30567  12.905   4.664   5.667
30087W        W30568  13.757   4.962   4.505
30088W        W30569  14.044   4.695   4.147
30089W        W30570  13.853   6.735   4.536
30090W        W30571  13.583   5.417   4.310
30091W        W30572  13.016   5.627   5.296
30092W        W30573  13.897   5.415   5.363
30093W        W30574  11.272   4.430   5.787
30094W        W30575  14.050   5.482   6.614
30095W        W30576  14.401   7.100   5.760
30096W        W30577  12.331   6.544   5.162
30097W        W30578  13.338   7.077   6.486
30098W        W30579  13.332   4.407   6.250
30099W        W30580  12.539   7.115   6.311
30100W        W30581  14.236   4.069   4.777
30101W        W30582  14.027   5.388   6.078
30102W        W30583  11.010   4.709   6.116
30103W        W30584  13.870   4.504   5.134
30104W        W30585  14.281   4.655   6.911
30105W        W30586  13.166   6.354   5.129
30106W        W30587  12.422   6.945   4.742
30107W        W30588  11.537   4.125   4.000
30108W        W30589  12.641   3.779   5.810
30109W        W30590  11.669   6.899   3.658
30110W        W30591  12.043   5.365   4.409
30111W        W30592  12.697   5.994   6.722
30112W        W30593  12.527   4.352   4.712
30113W        W30594  13.883   3.949   5.140
30114W        W30595  13.603   7.231   5.468
30115W        W30596  13.015   6.879   5.808
30116W        W30597  12.411   5.916   5.769
30117W        W30598  14.181   6.639   5.895
30118W        W30599  11.875   4.142   4.664
30119W        W30600  12.397   6.439   5.624
30120W        W30601  11.880   4.370   3.689
30121W        W30602  12.681   4.979   6.083
30122W        W30603  13.529   3.845   5.953
30123W        W30604  10.949   5.688   5.838
30124W        W30605  12.653   5.506   3.996
30125W        W30606  11.921   3.821   3.766
30126W        W30607  12.659   4.902   4.817
30127W        W30608  13.629   3.878   6.516
30128W        W30609  12.217   5.890   6.625
30129W        W30610  13.021   5.672   6.842
30130W        W30611  13.638   5.702   6.735
30131W        W30612  12.922   3.842   7.240
30132W        W30613  12.144   4.458   5.633
30133W        W30614  11.570   4.414   5.031
30134W        W30615  11.356   7.126   4.707
30135W        W30616  12.688   6.456   6.832
30136W        W30617  11.723   5.941   4.191
30137W        W30618  13.403   5.326   5.412
30138W        W30619  13.683   5.125   5.811
30139W        W30620  12.888   5.799   5.745
30140W        W30621  13.358   6.173   3.877
30141W        W30622  13.030   4.194   5.205
30142W        W30623  14.509   4.472   4.473
30143W        W30624  11.003   7.061   6.504
30144W        W30625  11.420   6.287   6.036
30145W        W30626  10.987   7.133   4.268
30146W        W30627  12.886   4.403   6.074
30147W        W30628  12.249   6.426   3.923
30148W        W30629  14.154   6.808   4.109
30149W        W30630  13.129   5.461   4.123
30150W        W30631  11.972   4.652   4.640
30151W        W30632  12.804   4.562   3.692
30152W        W30633  13.388   6.127   6.870
30153W        W30634  13.741   4.033   4.487
30154W        W30635  11.071   3.881   3.935
30155W        W30636  12.357   6.200   6.225
30156W        W30637  12.156   6.116   5.317
30157W        W30638  11.898   6.068   3.715
30158W        W30639  11.139   6.309   4.483
30159W        W30640  11.643   5.379   6.925
30160W        W30641  12.347   3.939   7.111
30161W        W30642  13.056   4.081   6.467
30162W        W30643  12.251   3.849   4.748
30163W        W30644  13.310   3.926   4.253
30164W        W30645  11.255   3.858   5.830
30165W        W30646  11.303   4.821   5.200
30166W        W30647  13.992   3.929   5.606
30167W        W30648  11.414   4.427   4.420
30168W        W30649  13.985   4.115   6.036
30169W        W30650  14.381   5.318   3.721
30170W        W30651  11.673   4.076   5.540
30171W        W30652  12.787   4.648   6.480
30172W        W30653  10.935   4.338   3.958
30173W        W30654  11.721   5.727   6.519
30174W        W30655  13.079   5.125   5.698
30175W        W30656  12.946   7.204   3.994
30176W        W30657  11.092   5.711   3.691
30177W        W30658  11.827   6.122   6.817
30178W        W30659  11.348   5.289   6.448
30179W        W30660  12.339   5.394   6.242
30180W        W30661  14.107   3.753   6.504
30181W        W30662  14.505   5.363   6.495
30182W        W30663  13.356   5.895   4.280
30183W        W30664  13.830   7.195   3.975
30184W        W30665  13.007   5.185   7.117
30185W        W30666  11.337   6.152   7.157
30186W        W30667  14.543   4.074   7.109
30187W        W30668  14.261   5.002   5.730
30188W        W30669  12.569   7.132   7.207
30189W        W30670  12.424   3.761   3.934
30190W        W30671  13.963   6.360   3.877
30191W        W30672  11.732   4.453   6.763
30192W        W30673  12.166   6.447   6.625
30193W        W30674  14.292   4.438   6.423
30194W        W30675  13.503   7.097   4.391
30195W        W30676  13.742   5.716   5.758
30196W        W30677  11.992   4.132   6.425
30197W        W30678  12.461   5.201   7.182
30198W        W30679  11.964   6.380   4.376
30199W        W30680  13.719   5.878   4.640
30200W        W30681  11.487   4.504   6.364
30201W        W30682  12.816   6.566   4.828
30202W        W30683  14.566   5.126   5.009
30203W        W30684  12.788   3.759   6.728
30204W        W30685  13.568   6.464   5.807
30205W        W30686  13.871   6.808   5.515
30206W        W30687  13.090   6.610   3.943
30207W        W30688  11.100   6.502   6.785
30208W        W30689  11.843   4.494   6.023
30209W        W30690  11.813   3.842   5.133
30210W        W30691  13.434   4.684   5.825
30211W        W30692  12.232   5.855   4.025
30212W        W30693  14.230   5.797   5.524
30213W        W30694  11.557   6.555   6.947
30214W        W30695  13.944   7.237   4.744
30215W        W30696  12.043   4.257   5.189
30216W        W30697  11.812   5.750   5.279
30217W        W30698  12.125   7.161   6.029
30218W        W30699  14.192   7.257   7.061
30219W        W30700  13.351   5.445   5.994
30220W        W30701  11.200   5.243   3.909
30221W        W30702  14.334   6.901   4.606
30222W        W30703  14.171   4.225   4.225
30223W        W30704  12.310   3.744   6.628
30224W        W30705  14.016   6.546   5.086
30225W        W30706  14.045   5.102   4.991
30226W        W30707  12.162   4.775   5.207
30227W        W30708  12.407   5.037   6.531
30228W        W30709  13.518   6.190   6.394
30229W        W30710  12.168   4.644   6.506
30230W        W30711  12.147   7.110   5.122
30231W        W30712  11.464   7.069   6.756
30232W        W30713  11.576   6.430   3.886
30233W        W30714  14.093   6.188   4.696
30234W        W30715  11.697   4.980   6.582
30235W        W30716  14.470   4.910   4.063
30236W        W30717  12.215   5.967   4.534
30237W        W30718  13.314   5.349   6.615
30238W        W30719  13.205   4.977   6.159
30239W        W30720  11.765   5.349   6.188
30240W        W30721  13.975   7.237   6.017
30241W        W30722  13.766   3.871   7.011
30242W        W30723  11.430   4.021   6.598
30243W        W30724  11.769   5.044   5.651
30244W        W30725  12.138   4.858   3.773
30245W        W30726  10.941   6.617   6.318
30246W        W30727  12.526   5.326   5.761
30247W        W30728  12.349   4.351   3.866
30248W        W30729  11.484   5.167   4.647
30249W        W30730  11.255   7.019   6.084
30250W        W30731  14.050   5.245   4.192
30251W        W30732  14.145   4.161   6.878
30252W        W30733  13.581   6.370   4.841
30253W        W30734  11.179   5.294   7.018
30254W        W30735  14.145   3.758   4.314
30255W        W30736  13.665   6.233   4.325
30256W        W30737  12.567   5.291   4.410
30257W        W30738  13.754   4.095   3.933
30258W        W30739  13.819   4.702   6.119
30259W        W30740  11.528   5.295   5.326
30260W        W30741  11.822   6.234   4.975
30261W        W30742  13.585   4.854   4.940
30262W        W30743  12.608   4.233   5.636
30263W        W30744  14.570   6.144   6.147
30264W        W30745  14.488   4.131   5.708
30265W        W30746  11.027   6.961   5.084
30266W        W30747  11.536   6.148   4.620
30267W        W30748  11.451   3.765   7.173
30268W        W30749  12.570   6.618   7.275
30269W        W30750  14.325   5.586   5.065
30270W        W30751  13.679   5.763   3.945
30271W        W30752  12.974   7.284   6.157
30272W        W30753  13.831   6.006   7.194
30273W        W30754  12.646   3.716   4.474
30274W        W30755  13.359   4.585   5.333
30275W        W30756  11.045   6.172   5.665
30276W        W30757  12.298   4.134   4.306
30277W        W30758  12.102   5.618   7.155
30278W        W30759  13.096   4.599   4.869
30279W        W30760  13.301   6.009   5.991
30280W        W30761  11.455   6.614   6.426
30281W        W30762  12.046   6.597   7.149
30282W        W30763  11.897   4.394   4.163
30283W        W30764  13.414   4.536   4.488
30284W        W30765  13.372   6.644   6.725
30285W        W30766  12.057   5.236   5.324
30286W        W30767  11.712   6.934   6.189
30287W        W30768  14.457   7.051   3.790
30288W        W30769  11.320   5.723   6.786
30289W        W30770  13.315   5.985   5.474
30290W        W30771  11.751   5.634   4.716
30291W        W30772  12.122   6.641   6.111
30292W        W30773  12.500   4.060   5.152
30293W        W30774  11.111   6.044   4.082
30294W        W30775  12.630   4.995   3.952
30295W        W30776  11.276   5.544   4.971
30296W        W30777  12.566   4.186   6.435
30297W        W30778  14.238   3.895   3.862
30298W        W30779  14.331   5.641   6.961
30299W        W30780  12.985   6.898   7.113
30300W        W30781  14.543   5.992   6.635
30301W        W30782  13.951   6.790   7.246
30302W        W30783  11.690   7.246   5.724
30303W        W30784  14.549   5.868   4.598
30304W        W30785  13.079   5.135   5.111
30305W        W30786  12.846   3.747   5.001
30306W        W30787  11.905   6.731   4.838
30307W        W30788  12.104   3.841   5.532
30308W        W30789  11.167   6.663   4.080
30309W        W30790  12.983   6.027   4.798
30310W        W30791  11.858   6.822   6.677
30311W        W30792  11.335   5.645   4.373
30312W        W30793  11.220   4.188   5.372
30313W        W30794  12.768   6.153   5.429
30314W        W30795  11.020   4.007   4.449
30315W        W30796  13.684   5.213   6.376
30316W        W30797  13.561   4.599   3.948
30317W        W30798  14.078   6.271   5.596
30318W        W30799  12.739   6.755   5.427
30319W        W30800  12.151   6.859   4.338
30320W        W30801  13.433   3.762   3.768
30321W        W30802  11.233   7.022   5.509
30322W        W30803  13.430   4.780   7.144
30323W        W30804  11.413   4.310   7.143
30324W        W30805  11.144   4.910   4.476
30325W        W30806  11.835   4.899   4.201
30326W        W30807  13.598   5.226   7.018
30327W        W30808  11.941   5.507   5.727
30328W        W30809  13.415   3.793   4.847
30329W        W30810  12.546   7.224   5.350
30330W        W30811  13.344   6.835   5.398
30331W        W30812  13.363   5.815   4.992
30332W        W30813  12.825   4.040   4.063
30333W        W30814  14.506   3.668   4.785
30334W        W30815  12.194   5.303   3.948
30335W        W30816  14.360   4.640   4.938
30336W        W30817  13.988   6.010   6.563
30337W        W30818  13.642   6.711   4.030
30338W        W30819  12.257   4.386   6.936
30339W        W30820  12.077   4.970   6.177
30340W        W30821  14.169   6.465   6.454
30341W        W30822  13.269   4.415   6.831
30342W        W30823  11.113   4.886   6.608
30343W        W30824  12.873   5.363   6.334
30344W        W30825  11.230   6.121   4.991
30345W        W30826  11.377   5.418   5.881
30346W        W30827  13.694   5.704   6.231
30347W        W30828  13.466   7.084   7.042
30348W        W30829  13.362   4.823   6.595
30349W        W30830  13.639   6.877   5.000
30350W        W30831  12.641   6.597   6.323
30351W        W30832  12.126   6.952   5.592
30352W        W30833  13.931   6.123   6.011
30353W        W30834  12.981   6.195   7.148
30354W        W30835  11.586   6.148   5.487
30355W        W30836  13.932   5.907   5.132
30356W        W30837  13.573   6.973   5.883
30357W        W30838  11.551   6.702   5.753
30358W        W30839  12.572   4.754   6.963
30359W        W30840  13.023   6.920   4.474
30360W        W30841  12.331   6.175   7.112
30361W        W30842  12.457   6.413   4.489
30362W        W30843  11.678   5.153   3.748
30363W        W30844  11.017   7.239  10.648
30364W        W30845  11.393   6.132  10.171
30365W        W30846  14.098   5.862   7.941
30366W        W30847  14.228   6.947   9.968
30367W        W30848  12.146   6.938   7.494
30368W        W30849  12.229   5.090   8.477
30369W        W30850  11.744   4.938   8.641
30370W        W30851  12.735   5.753   8.075
30371W        W30852  12.410   6.845  10.430
30372W        W30853  11.059   4.406  10.393
30373W        W30854  11.821   3.686  10.195
30374W        W30855  13.515   4.074   9.082
30375W        W30856  13.164   4.945   7.652
30376W        W30857  13.734   4.379  10.743
30377W        W30858  11.100   4.171   9.868
30378W        W30859  11.199   6.790  10.889
30379W        W30860  12.721   6.180   7.621
30380W        W30861  11.153   4.963   9.314
30381W        W30862  12.046   4.854  10.551
30382W        W30863  14.505   4.713   9.050
30383W        W30864  14.269   5.756   9.909
30384W        W30865  12.577   5.089   8.936
30385W        W30866  13.123   6.428   9.305
30386W        W30867  11.623   5.862   9.537
30387W        W30868  10.982   5.390   9.108
30388W        W30869  12.018   5.362  10.300
30389W        W30870  14.289   5.145  10.554
30390W        W30871  11.905   6.589   8.999
30391W        W30872  13.026   6.278  10.133
30392W        W30873  12.246   4.918   9.358
30393W        W30874  12.538   5.702   9.001
30394W        W30875  13.535   6.475  10.849
30395W        W30876  12.614   5.795  10.859
30396W        W30877  11.004   4.902  10.859
30397W        W30878  13.836   6.437  10.458
30398W        W30879  11.417   4.019   8.456
30399W        W30880  11.944   6.277   9.455
30400W        W30881  14.407   6.060   8.745
30401W        W30882  13.820   4.460   9.312
30402W        W30883  14.105   4.413   7.407
30403W        W30884  14.570   5.214   9.713
30404W        W30885  12.537   6.921   9.466
30405W        W30886  14.311   6.387   7.904
30406W        W30887  11.440   7.173   7.658
30407W        W30888  11.833   7.219   8.334
30408W        W30889  11.630   3.973   9.760
30409W        W30890  14.253   4.991  10.035
30410W        W30891  13.658   5.413   8.494
30411W        W30892  13.624   5.101   7.521
30412W        W30893  12.832   6.245   9.661
30413W        W30894  12.638   4.575   8.860
30414W        W30895  13.238   6.662   9.854
30415W        W30896  14.109   5.453   8.276
30416W        W30897  13.011   4.111   8.292
30417W        W30898  11.668   6.805   7.975
30418W        W30899  11.039   4.304   8.574
30419W        W30900  13.825   4.911   9.048
30420W        W30901  11.283   6.528   8.963
30421W        W30902  12.624   6.878   7.833
30422W        W30903  14.016   4.904   7.297
30423W        W30904  11.039   6.662   9.461
30424W        W30905  11.830   6.234   9.941
30425W        W30906  12.203   5.594   8.560
30426W        W30907  12.225   3.999   9.653
30427W        W30908  14.454   3.761   8.950
30428W        W30909  11.673   5.633   7.418
30429W        W30910  11.328   4.666   7.597
30430W        W30911  11.390   6.622   8.391
30431W        W30912  12.521   6.105   8.639
30432W        W30913  13.853   6.964  10.353
30433W        W30914  12.779   4.606   8.037
30434W        W30915  13.839   4.857  10.407
30435W        W30916  14.552   6.513   8.541
30436W        W30917  13.179   5.805  10.025
30437W        W30918  10.945   5.356   8.231
30438W        W30919  12.056   5.771   9.804
30439W        W30920  13.260   5.035   8.182
30440W        W30921  13.137   5.525   8.286
30441W        W30922  11.480   4.945   9.760
30442W        W30923  11.355   3.738   8.841
30443W        W30924  13.123   4.085   9.402
30444W        W30925  12.771   4.270  10.565
30445W        W30926  13.126   4.419   7.743
30446W        W30927  14.309   6.812  10.497
30447W        W30928  13.276   3.893  10.536
30448W        W30929  14.295   6.194  10.658
30449W        W30930  13.525   4.299   8.524
30450W        W30931  13.918   5.433  10.928
30451W        W30932  11.658   7.009   8.914
30452W        W30933  12.316   4.726   7.900
30453W        W30934  11.885   4.010  10.564
30454W        W30935  13.937   4.494   8.245
30455W        W30936  14.304   4.976   8.190
30456W        W30937  12.047   7.193  10.661
30457W        W30938  11.973   3.729   7.896
30458W        W30939  14.294   4.263   8.931
30459W        W30940  14.444   6.512   7.376
30460W        W30941  11.351   5.715   9.078
30461W        W30942  13.268   4.302   7.308
30462W        W30943  14.402   6.634   9.028
30463W        W30944  14.441   3.828   9.778
30464W        W30945  12.886   5.040  10.332
30465W        W30946  12.979   6.379   8.035
30466W        W30947  13.379   5.673  10.775
30467W        W30948  13.053   3.650   9.084
30468W        W30949  11.665   4.553   9.147
30469W        W30950  11.219   5.753   9.921
30470W        W30951  13.078   6.946   8.627
30471W        W30952  14.272   4.543   9.499
30472W        W30953  12.909   6.890  10.266
30473W        W30954  14.252   5.949   7.471
30474W        W30955  12.687   5.432   8.532
30475W        W30956  14.539   3.943  10.273
30476W        W30957  12.688   5.778   9.867
30477W        W30958  12.905   4.664   9.312
30478W        W30959  13.757   4.962   8.150
30479W        W30960  14.044   4.695   7.792
30480W        W30961  13.853   6.735   8.181
30481W        W30962  13.687   6.338   8.977
30482W        W30963  13.583   5.417   7.955
30483W        W30964  13.016   5.627   8.941
30484W        W30965  13.897   5.415   9.008
30485W        W30966  11.272   4.430   9.432
30486W        W30967  14.050   5.482  10.259
30487W        W30968  14.401   7.100   9.405
30488W        W30969  12.331   6.544   8.807
30489W        W30970  13.338   7.077  10.131
30490W        W30971  13.332   4.407   9.895
30491W        W30972  12.539   7.115   9.956
30492W        W30973  14.236   4.069   8.422
30493W        W30974  14.027   5.388   9.723
30494W        W30975  11.010   4.709   9.761
30495W        W30976  13.870   4.504   8.779
30496W        W30977  14.281   4.655  10.556
30497W        W30978  13.166   6.354   8.774
30498W        W30979  12.422   6.945   8.387
30499W        W30980  11.537   4.125   7.645
30500W        W30981  12.641   3.779   9.455
30501W        W30982  11.669   6.899   7.303
30502W        W30983  12.043   5.365   8.054
30503W        W30984  12.697   5.994  10.367
30504W        W30985  12.527   4.352   8.357
30505W        W30986  13.883   3.949   8.785
30506W        W30987  13.603   7.231   9.113
30507W        W30988  13.015   6.879   9.453
30508W        W30989  12.411   5.916   9.414
30509W        W30990  14.181   6.639   9.540
30510W        W30991  11.875   4.142   8.309
30511W        W30992  12.397   6.439   9.269
30512W        W30993  11.880   4.370   7.334
30513W        W30994  12.681   4.979   9.728
30514W        W30995  13.529   3.845   9.598
30515W        W30996  10.949   5.688   9.483
30516W        W30997  12.653   5.506   7.641
30517W        W30998  11.921   3.821   7.411
30518W        W30999  12.659   4.902   8.462
30519W        W31000  13.629   3.878  10.161
30520W        W31001  12.217   5.890  10.270
30521W        W31002  13.021   5.672  10.487
30522W        W31003  13.638   5.702  10.380
30523W        W31004  12.922   3.842  10.885
30524W        W31005  12.144   4.458   9.278
30525W        W31006  11.570   4.414   8.676
30526W        W31007  11.356   7.126   8.352
30527W        W31008  12.688   6.456  10.477
30528W        W31009  11.723   5.941   7.836
30529W        W31010  13.403   5.326   9.057
30530W        W31011  13.683   5.125   9.456
30531W        W31012  12.888   5.799   9.390
30532W        W31013  13.358   6.173   7.522
30533W        W31014  13.030   4.194   8.850
30534W        W31015  14.509   4.472   8.118
30535W        W31016  11.003   7.061  10.149
30536W        W31017  11.420   6.287   9.681
30537W        W31018  10.987   7.133   7.913
30538W        W31019  12.886   4.403   9.719
30539W        W31020  12.249   6.426   7.568
30540W        W31021  14.154   6.808   7.754
30541W        W31022  13.129   5.461   7.768
30542W        W31023  11.972   4.652   8.285
30543W        W31024  12.804   4.562   7.337
30544W        W31025  13.388   6.127  10.515
30545W        W31026  13.741   4.033   8.132
30546W        W31027  11.071   3.881   7.580
30547W        W31028  12.357   6.200   9.870
30548W        W31029  12.156   6.116   8.962
30549W        W31030  11.898   6.068   7.360
30550W        W31031  11.139   6.309   8.128
30551W        W31032  11.643   5.379  10.570
30552W        W31033  12.347   3.939  10.756
30553W        W31034  13.056   4.081  10.112
30554W        W31035  12.251   3.849   8.393
30555W        W31036  13.310   3.926   7.898
30556W        W31037  11.255   3.858   9.475
30557W        W31038  11.303   4.821   8.845
30558W        W31039  13.992   3.929   9.251
30559W        W31040  11.414   4.427   8.065
30560W        W31041  13.985   4.115   9.681
30561W        W31042  14.381   5.318   7.366
30562W        W31043  11.673   4.076   9.185
30563W        W31044  12.787   4.648  10.125
30564W        W31045  10.935   4.338   7.603
30565W        W31046  11.721   5.727  10.164
30566W        W31047  13.079   5.125   9.343
30567W        W31048  12.946   7.204   7.639
30568W        W31049  11.092   5.711   7.336
30569W        W31050  11.827   6.122  10.462
30570W        W31051  11.348   5.289  10.093
30571W        W31052  12.339   5.394   9.887
30572W        W31053  14.107   3.753  10.149
30573W        W31054  14.505   5.363  10.140
30574W        W31055  14.493   5.563   7.826
30575W        W31056  13.356   5.895   7.925
30576W        W31057  13.830   7.195   7.620
30577W        W31058  13.007   5.185  10.762
30578W        W31059  11.337   6.152  10.802
30579W        W31060  14.543   4.074  10.754
30580W        W31061  14.261   5.002   9.375
30581W        W31062  12.569   7.132  10.852
30582W        W31063  12.424   3.761   7.579
30583W        W31064  13.963   6.360   7.522
30584W        W31065  11.732   4.453  10.408
30585W        W31066  12.166   6.447  10.270
30586W        W31067  14.292   4.438  10.068
30587W        W31068  13.503   7.097   8.036
30588W        W31069  13.742   5.716   9.403
30589W        W31070  11.992   4.132  10.070
30590W        W31071  12.461   5.201  10.827
30591W        W31072  11.964   6.380   8.021
30592W        W31073  13.719   5.878   8.285
30593W        W31074  11.487   4.504  10.009
30594W        W31075  12.816   6.566   8.473
30595W        W31076  14.566   5.126   8.654
30596W        W31077  12.788   3.759  10.373
30597W        W31078  13.568   6.464   9.452
30598W        W31079  13.871   6.808   9.160
30599W        W31080  13.090   6.610   7.588
30600W        W31081  11.100   6.502  10.430
30601W        W31082  11.843   4.494   9.668
30602W        W31083  11.813   3.842   8.778
30603W        W31084  13.434   4.684   9.470
30604W        W31085  12.232   5.855   7.670
30605W        W31086  11.557   6.555  10.592
30606W        W31087  13.944   7.237   8.389
30607W        W31088  12.043   4.257   8.834
30608W        W31089  11.812   5.750   8.924
30609W        W31090  12.125   7.161   9.674
30610W        W31091  14.192   7.257  10.706
30611W        W31092  13.351   5.445   9.639
30612W        W31093  11.200   5.243   7.554
30613W        W31094  14.334   6.901   8.251
30614W        W31095  14.171   4.225   7.870
30615W        W31096  12.310   3.744  10.273
30616W        W31097  14.016   6.546   8.731
30617W        W31098  14.045   5.102   8.636
30618W        W31099  12.162   4.775   8.852
30619W        W31100  12.407   5.037  10.176
30620W        W31101  13.518   6.190  10.039
30621W        W31102  12.168   4.644  10.151
30622W        W31103  12.147   7.110   8.767
30623W        W31104  11.464   7.069  10.401
30624W        W31105  11.576   6.430   7.531
30625W        W31106  14.093   6.188   8.341
30626W        W31107  14.470   4.910   7.708
30627W        W31108  12.215   5.967   8.179
30628W        W31109  13.314   5.349  10.260
30629W        W31110  13.205   4.977   9.804
30630W        W31111  11.765   5.349   9.833
30631W        W31112  13.975   7.237   9.662
30632W        W31113  13.766   3.871  10.656
30633W        W31114  11.430   4.021  10.243
30634W        W31115  11.769   5.044   9.296
30635W        W31116  12.138   4.858   7.418
30636W        W31117  10.941   6.617   9.963
30637W        W31118  12.526   5.326   9.406
30638W        W31119  12.349   4.351   7.511
30639W        W31120  11.484   5.167   8.292
30640W        W31121  11.255   7.019   9.729
30641W        W31122  14.050   5.245   7.837
30642W        W31123  14.145   4.161  10.523
30643W        W31124  13.581   6.370   8.486
30644W        W31125  11.179   5.294  10.663
30645W        W31126  14.145   3.758   7.959
30646W        W31127  13.665   6.233   7.970
30647W        W31128  12.567   5.291   8.055
30648W        W31129  13.754   4.095   7.578
30649W        W31130  13.819   4.702   9.764
30650W        W31131  11.528   5.295   8.971
30651W        W31132  11.822   6.234   8.620
30652W        W31133  13.585   4.854   8.585
30653W        W31134  12.608   4.233   9.281
30654W        W31135  14.570   6.144   9.792
30655W        W31136  14.488   4.131   9.353
30656W        W31137  11.027   6.961   8.729
30657W        W31138  11.451   3.765  10.818
30658W        W31139  12.570   6.618  10.920
30659W        W31140  14.325   5.586   8.710
30660W        W31141  13.679   5.763   7.590
30661W        W31142  12.974   7.284   9.802
30662W        W31143  13.831   6.006  10.839
30663W        W31144  12.646   3.716   8.119
30664W        W31145  13.359   4.585   8.978
30665W        W31146  11.045   6.172   9.310
30666W        W31147  12.298   4.134   7.951
30667W        W31148  12.102   5.618  10.800
30668W        W31149  13.096   4.599   8.514
30669W        W31150  13.301   6.009   9.636
30670W        W31151  11.455   6.614  10.071
30671W        W31152  12.046   6.597  10.794
30672W        W31153  11.897   4.394   7.808
30673W        W31154  13.414   4.536   8.133
30674W        W31155  13.372   6.644  10.370
30675W        W31156  12.057   5.236   8.969
30676W        W31157  14.457   7.051   7.435
30677W        W31158  11.320   5.723  10.431
30678W        W31159  13.315   5.985   9.119
30679W        W31160  11.751   5.634   8.361
30680W        W31161  12.122   6.641   9.756
30681W        W31162  12.500   4.060   8.797
30682W        W31163  11.111   6.044   7.727
30683W        W31164  11.276   5.544   8.616
30684W        W31165  12.566   4.186  10.080
30685W        W31166  14.238   3.895   7.507
30686W        W31167  14.331   5.641  10.606
30687W        W31168  12.985   6.898  10.758
30688W        W31169  14.543   5.992  10.280
30689W        W31170  13.951   6.790  10.891
30690W        W31171  11.690   7.246   9.369
30691W        W31172  14.549   5.868   8.243
30692W        W31173  13.079   5.135   8.756
30693W        W31174  12.846   3.747   8.646
30694W        W31175  11.905   6.731   8.483
30695W        W31176  12.404   4.472   9.708
30696W        W31177  12.104   3.841   9.177
30697W        W31178  11.167   6.663   7.725
30698W        W31179  12.983   6.027   8.443
30699W        W31180  11.858   6.822  10.322
30700W        W31181  11.335   5.645   8.018
30701W        W31182  11.220   4.188   9.017
30702W        W31183  12.768   6.153   9.074
30703W        W31184  11.020   4.007   8.094
30704W        W31185  13.684   5.213  10.021
30705W        W31186  13.561   4.599   7.593
30706W        W31187  14.078   6.271   9.241
30707W        W31188  12.739   6.755   9.072
30708W        W31189  12.151   6.859   7.983
30709W        W31190  13.433   3.762   7.413
30710W        W31191  11.233   7.022   9.154
30711W        W31192  13.430   4.780  10.789
30712W        W31193  11.413   4.310  10.788
30713W        W31194  11.144   4.910   8.121
30714W        W31195  11.835   4.899   7.846
30715W        W31196  13.598   5.226  10.663
30716W        W31197  11.941   5.507   9.372
30717W        W31198  13.415   3.793   8.492
30718W        W31199  12.546   7.224   8.995
30719W        W31200  13.760   6.686   9.932
30720W        W31201  13.344   6.835   9.043
30721W        W31202  13.363   5.815   8.637
30722W        W31203  12.825   4.040   7.708
30723W        W31204  14.506   3.668   8.430
30724W        W31205  12.194   5.303   7.593
30725W        W31206  14.360   4.640   8.583
30726W        W31207  13.052   5.810   7.460
30727W        W31208  13.988   6.010  10.208
30728W        W31209  13.642   6.711   7.675
30729W        W31210  12.257   4.386  10.581
30730W        W31211  12.077   4.970   9.822
30731W        W31212  14.169   6.465  10.099
30732W        W31213  13.269   4.415  10.476
30733W        W31214  11.113   4.886  10.253
30734W        W31215  12.873   5.363   9.979
30735W        W31216  11.230   6.121   8.636
30736W        W31217  11.377   5.418   9.526
30737W        W31218  13.694   5.704   9.876
30738W        W31219  13.466   7.084  10.687
30739W        W31220  13.362   4.823  10.240
30740W        W31221  13.639   6.877   8.645
30741W        W31222  12.641   6.597   9.968
30742W        W31223  12.126   6.952   9.237
30743W        W31224  13.931   6.123   9.656
30744W        W31225  12.981   6.195  10.793
30745W        W31226  11.586   6.148   9.132
30746W        W31227  13.932   5.907   8.777
30747W        W31228  13.573   6.973   9.528
30748W        W31229  11.551   6.702   9.398
30749W        W31230  12.572   4.754  10.608
30750W        W31231  13.023   6.920   8.119
30751W        W31232  12.331   6.175  10.757
30752W        W31233  12.457   6.413   8.134
30753W        W31234  11.678   5.153   7.393
30754W        W31235  11.017   7.239  14.292
30755W        W31236  11.393   6.132  13.815
30756W        W31237  14.098   5.862  11.585
30757W        W31238  14.228   6.947  13.612
30758W        W31239  12.146   6.938  11.138
30759W        W31240  12.229   5.090  12.121
30760W        W31241  11.744   4.938  12.285
30761W        W31242  12.410   6.845  14.074
30762W        W31243  11.059   4.406  14.037
30763W        W31244  11.821   3.686  13.839
30764W        W31245  13.515   4.074  12.726
30765W        W31246  13.164   4.945  11.296
30766W        W31247  13.734   4.379  14.387
30767W        W31248  11.100   4.171  13.512
30768W        W31249  11.199   6.790  14.533
30769W        W31250  12.721   6.180  11.265
30770W        W31251  11.153   4.963  12.958
30771W        W31252  12.046   4.854  14.195
30772W        W31253  14.505   4.713  12.694
30773W        W31254  14.269   5.756  13.553
30774W        W31255  12.577   5.089  12.580
30775W        W31256  13.123   6.428  12.949
30776W        W31257  11.623   5.862  13.181
30777W        W31258  10.982   5.390  12.752
30778W        W31259  12.018   5.362  13.944
30779W        W31260  14.289   5.145  14.198
30780W        W31261  11.905   6.589  12.643
30781W        W31262  13.026   6.278  13.777
30782W        W31263  12.246   4.918  13.002
30783W        W31264  12.538   5.702  12.645
30784W        W31265  13.535   6.475  14.493
30785W        W31266  12.614   5.795  14.503
30786W        W31267  12.595   5.511  13.981
30787W        W31268  11.004   4.902  14.503
30788W        W31269  13.836   6.437  14.102
30789W        W31270  11.417   4.019  12.100
30790W        W31271  11.944   6.277  13.099
30791W        W31272  14.407   6.060  12.389
30792W        W31273  13.820   4.460  12.956
30793W        W31274  14.105   4.413  11.051
30794W        W31275  14.570   5.214  13.357
30795W        W31276  12.537   6.921  13.110
30796W        W31277  14.311   6.387  11.548
30797W        W31278  11.440   7.173  11.302
30798W        W31279  11.833   7.219  11.978
30799W        W31280  11.630   3.973  13.404
30800W        W31281  14.253   4.991  13.679
30801W        W31282  13.658   5.413  12.138
30802W        W31283  13.624   5.101  11.165
30803W        W31284  12.832   6.245  13.305
30804W        W31285  12.638   4.575  12.504
30805W        W31286  13.238   6.662  13.498
30806W        W31287  14.109   5.453  11.920
30807W        W31288  13.011   4.111  11.936
30808W        W31289  11.668   6.805  11.619
30809W        W31290  11.039   4.304  12.218
30810W        W31291  13.825   4.911  12.692
30811W        W31292  11.283   6.528  12.607
30812W        W31293  12.624   6.878  11.477
30813W        W31294  14.016   4.904  10.941
30814W        W31295  11.039   6.662  13.105
30815W        W31296  11.830   6.234  13.585
30816W        W31297  12.203   5.594  12.204
30817W        W31298  12.225   3.999  13.297
30818W        W31299  14.454   3.761  12.594
30819W        W31300  11.673   5.633  11.062
30820W        W31301  11.328   4.666  11.241
30821W        W31302  11.390   6.622  12.035
30822W        W31303  12.521   6.105  12.283
30823W        W31304  13.853   6.964  13.997
30824W        W31305  12.779   4.606  11.681
30825W        W31306  14.162   7.004  12.453
30826W        W31307  13.839   4.857  14.051
30827W        W31308  14.552   6.513  12.185
30828W        W31309  13.179   5.805  13.669
30829W        W31310  10.945   5.356  11.875
30830W        W31311  12.056   5.771  13.448
30831W        W31312  13.260   5.035  11.826
30832W        W31313  13.137   5.525  11.930
30833W        W31314  11.480   4.945  13.404
30834W        W31315  11.465   4.821  14.326
30835W        W31316  11.355   3.738  12.485
30836W        W31317  13.123   4.085  13.046
30837W        W31318  12.771   4.270  14.209
30838W        W31319  13.126   4.419  11.387
30839W        W31320  14.309   6.812  14.141
30840W        W31321  13.276   3.893  14.180
30841W        W31322  14.295   6.194  14.302
30842W        W31323  13.725   4.361  13.898
30843W        W31324  13.525   4.299  12.168
30844W        W31325  13.918   5.433  14.572
30845W        W31326  11.658   7.009  12.558
30846W        W31327  12.316   4.726  11.544
30847W        W31328  11.885   4.010  14.208
30848W        W31329  13.937   4.494  11.889
30849W        W31330  14.304   4.976  11.834
30850W        W31331  12.047   7.193  14.305
30851W        W31332  11.973   3.729  11.540
30852W        W31333  14.294   4.263  12.575
30853W        W31334  14.444   6.512  11.020
30854W        W31335  11.351   5.715  12.722
30855W        W31336  13.268   4.302  10.952
30856W        W31337  14.402   6.634  12.672
30857W        W31338  14.441   3.828  13.422
30858W        W31339  12.886   5.040  13.976
30859W        W31340  12.979   6.379  11.679
30860W        W31341  13.379   5.673  14.419
30861W        W31342  13.053   3.650  12.728
30862W        W31343  11.665   4.553  12.791
30863W        W31344  13.078   6.946  12.271
30864W        W31345  14.272   4.543  13.143
30865W        W31346  12.909   6.890  13.910
30866W        W31347  14.252   5.949  11.115
30867W        W31348  12.687   5.432  12.176
30868W        W31349  14.539   3.943  13.917
30869W        W31350  12.688   5.778  13.511
30870W        W31351  12.905   4.664  12.956
30871W        W31352  13.757   4.962  11.794
30872W        W31353  14.044   4.695  11.436
30873W        W31354  13.853   6.735  11.825
30874W        W31355  13.687   6.338  12.621
30875W        W31356  13.583   5.417  11.599
30876W        W31357  13.016   5.627  12.585
30877W        W31358  13.897   5.415  12.652
30878W        W31359  11.272   4.430  13.076
30879W        W31360  14.050   5.482  13.903
30880W        W31361  14.401   7.100  13.049
30881W        W31362  12.331   6.544  12.451
30882W        W31363  13.338   7.077  13.775
30883W        W31364  13.332   4.407  13.539
30884W        W31365  12.539   7.115  13.600
30885W        W31366  14.236   4.069  12.066
30886W        W31367  14.027   5.388  13.367
30887W        W31368  11.010   4.709  13.405
30888W        W31369  13.870   4.504  12.423
30889W        W31370  14.281   4.655  14.200
30890W        W31371  13.166   6.354  12.418
30891W        W31372  12.422   6.945  12.031
30892W        W31373  11.537   4.125  11.289
30893W        W31374  12.641   3.779  13.099
30894W        W31375  11.669   6.899  10.947
30895W        W31376  12.043   5.365  11.698
30896W        W31377  12.697   5.994  14.011
30897W        W31378  12.527   4.352  12.001
30898W        W31379  13.883   3.949  12.429
30899W        W31380  13.603   7.231  12.757
30900W        W31381  13.015   6.879  13.097
30901W        W31382  12.411   5.916  13.058
30902W        W31383  14.181   6.639  13.184
30903W        W31384  11.875   4.142  11.953
30904W        W31385  12.397   6.439  12.913
30905W        W31386  11.880   4.370  10.978
30906W        W31387  12.681   4.979  13.372
30907W        W31388  13.529   3.845  13.242
30908W        W31389  10.949   5.688  13.127
30909W        W31390  12.653   5.506  11.285
30910W        W31391  11.921   3.821  11.055
30911W        W31392  12.659   4.902  12.106
30912W        W31393  13.629   3.878  13.805
30913W        W31394  12.217   5.890  13.914
30914W        W31395  13.021   5.672  14.131
30915W        W31396  13.638   5.702  14.024
30916W        W31397  12.922   3.842  14.529
30917W        W31398  12.144   4.458  12.922
30918W        W31399  11.570   4.414  12.320
30919W        W31400  11.356   7.126  11.996
30920W        W31401  12.688   6.456  14.121
30921W        W31402  11.723   5.941  11.480
30922W        W31403  13.403   5.326  12.701
30923W        W31404  13.683   5.125  13.100
30924W        W31405  12.888   5.799  13.034
30925W        W31406  13.358   6.173  11.166
30926W        W31407  13.030   4.194  12.494
30927W        W31408  14.509   4.472  11.762
30928W        W31409  11.003   7.061  13.793
30929W        W31410  11.420   6.287  13.325
30930W        W31411  10.987   7.133  11.557
30931W        W31412  12.886   4.403  13.363
30932W        W31413  12.249   6.426  11.212
30933W        W31414  14.154   6.808  11.398
30934W        W31415  13.129   5.461  11.412
30935W        W31416  11.972   4.652  11.929
30936W        W31417  12.804   4.562  10.981
30937W        W31418  13.388   6.127  14.159
30938W        W31419  13.741   4.033  11.776
30939W        W31420  11.071   3.881  11.224
30940W        W31421  12.357   6.200  13.514
30941W        W31422  12.156   6.116  12.606
30942W        W31423  11.898   6.068  11.004
30943W        W31424  11.139   6.309  11.772
30944W        W31425  11.643   5.379  14.214
30945W        W31426  12.347   3.939  14.400
30946W        W31427  13.056   4.081  13.756
30947W        W31428  12.251   3.849  12.037
30948W        W31429  13.310   3.926  11.542
30949W        W31430  11.255   3.858  13.119
30950W        W31431  11.303   4.821  12.489
30951W        W31432  13.992   3.929  12.895
30952W        W31433  11.414   4.427  11.709
30953W        W31434  14.381   5.318  11.010
30954W        W31435  11.673   4.076  12.829
30955W        W31436  12.787   4.648  13.769
30956W        W31437  10.935   4.338  11.247
30957W        W31438  11.721   5.727  13.808
30958W        W31439  13.079   5.125  12.987
30959W        W31440  12.946   7.204  11.283
30960W        W31441  11.092   5.711  10.980
30961W        W31442  11.827   6.122  14.106
30962W        W31443  11.348   5.289  13.737
30963W        W31444  12.339   5.394  13.531
30964W        W31445  14.107   3.753  13.793
30965W        W31446  14.505   5.363  13.784
30966W        W31447  14.493   5.563  11.470
30967W        W31448  13.356   5.895  11.569
30968W        W31449  13.830   7.195  11.264
30969W        W31450  13.007   5.185  14.406
30970W        W31451  11.337   6.152  14.446
30971W        W31452  14.543   4.074  14.398
30972W        W31453  14.261   5.002  13.019
30973W        W31454  12.569   7.132  14.496
30974W        W31455  12.424   3.761  11.223
30975W        W31456  13.963   6.360  11.166
30976W        W31457  11.732   4.453  14.052
30977W        W31458  12.166   6.447  13.914
30978W        W31459  14.292   4.438  13.712
30979W        W31460  13.503   7.097  11.680
30980W        W31461  13.742   5.716  13.047
30981W        W31462  11.992   4.132  13.714
30982W        W31463  12.461   5.201  14.471
30983W        W31464  11.964   6.380  11.665
30984W        W31465  13.719   5.878  11.929
30985W        W31466  11.487   4.504  13.653
30986W        W31467  12.816   6.566  12.117
30987W        W31468  14.566   5.126  12.298
30988W        W31469  12.788   3.759  14.017
30989W        W31470  13.568   6.464  13.096
30990W        W31471  13.871   6.808  12.804
30991W        W31472  13.090   6.610  11.232
30992W        W31473  11.843   4.494  13.312
30993W        W31474  11.813   3.842  12.422
30994W        W31475  13.434   4.684  13.114
30995W        W31476  12.232   5.855  11.314
30996W        W31477  14.230   5.797  12.813
30997W        W31478  11.557   6.555  14.236
30998W        W31479  13.944   7.237  12.033
30999W        W31480  12.043   4.257  12.478
31000W        W31481  11.812   5.750  12.568
31001W        W31482  12.125   7.161  13.318
31002W        W31483  14.192   7.257  14.350
31003W        W31484  13.351   5.445  13.283
31004W        W31485  11.200   5.243  11.198
31005W        W31486  14.334   6.901  11.895
31006W        W31487  14.171   4.225  11.514
31007W        W31488  12.310   3.744  13.917
31008W        W31489  14.016   6.546  12.375
31009W        W31490  14.045   5.102  12.280
31010W        W31491  12.162   4.775  12.496
31011W        W31492  12.407   5.037  13.820
31012W        W31493  13.518   6.190  13.683
31013W        W31494  12.168   4.644  13.795
31014W        W31495  12.147   7.110  12.411
31015W        W31496  11.464   7.069  14.045
31016W        W31497  11.576   6.430  11.175
31017W        W31498  14.093   6.188  11.985
31018W        W31499  11.697   4.980  13.871
31019W        W31500  14.470   4.910  11.352
31020W        W31501  12.215   5.967  11.823
31021W        W31502  13.314   5.349  13.904
31022W        W31503  13.205   4.977  13.448
31023W        W31504  11.765   5.349  13.477
31024W        W31505  13.975   7.237  13.306
31025W        W31506  13.766   3.871  14.300
31026W        W31507  11.430   4.021  13.887
31027W        W31508  12.138   4.858  11.062
31028W        W31509  10.941   6.617  13.607
31029W        W31510  12.526   5.326  13.050
31030W        W31511  12.349   4.351  11.155
31031W        W31512  11.484   5.167  11.936
31032W        W31513  11.255   7.019  13.373
31033W        W31514  14.050   5.245  11.481
31034W        W31515  14.145   4.161  14.167
31035W        W31516  13.581   6.370  12.130
31036W        W31517  11.179   5.294  14.307
31037W        W31518  14.145   3.758  11.603
31038W        W31519  13.665   6.233  11.614
31039W        W31520  12.567   5.291  11.699
31040W        W31521  13.754   4.095  11.222
31041W        W31522  13.819   4.702  13.408
31042W        W31523  11.528   5.295  12.615
31043W        W31524  11.822   6.234  12.264
31044W        W31525  13.585   4.854  12.229
31045W        W31526  12.608   4.233  12.925
31046W        W31527  14.570   6.144  13.436
31047W        W31528  14.488   4.131  12.997
31048W        W31529  11.027   6.961  12.373
31049W        W31530  11.536   6.148  11.909
31050W        W31531  11.451   3.765  14.462
31051W        W31532  12.570   6.618  14.564
31052W        W31533  14.325   5.586  12.354
31053W        W31534  13.679   5.763  11.234
31054W        W31535  12.974   7.284  13.446
31055W        W31536  13.831   6.006  14.483
31056W        W31537  12.646   3.716  11.763
31057W        W31538  13.359   4.585  12.622
31058W        W31539  11.045   6.172  12.954
31059W        W31540  12.298   4.134  11.595
31060W        W31541  12.102   5.618  14.444
31061W        W31542  13.096   4.599  12.158
31062W        W31543  13.301   6.009  13.280
31063W        W31544  11.455   6.614  13.715
31064W        W31545  12.046   6.597  14.438
31065W        W31546  11.897   4.394  11.452
31066W        W31547  13.414   4.536  11.777
31067W        W31548  13.372   6.644  14.014
31068W        W31549  12.057   5.236  12.613
31069W        W31550  11.712   6.934  13.478
31070W        W31551  14.457   7.051  11.079
31071W        W31552  11.320   5.723  14.075
31072W        W31553  13.315   5.985  12.763
31073W        W31554  11.751   5.634  12.005
31074W        W31555  12.122   6.641  13.400
31075W        W31556  12.500   4.060  12.441
31076W        W31557  11.111   6.044  11.371
31077W        W31558  12.630   4.995  11.241
31078W        W31559  11.276   5.544  12.260
31079W        W31560  12.566   4.186  13.724
31080W        W31561  14.238   3.895  11.151
31081W        W31562  14.331   5.641  14.250
31082W        W31563  12.985   6.898  14.402
31083W        W31564  14.543   5.992  13.924
31084W        W31565  13.951   6.790  14.535
31085W        W31566  11.690   7.246  13.013
31086W        W31567  14.549   5.868  11.887
31087W        W31568  13.079   5.135  12.400
31088W        W31569  12.846   3.747  12.290
31089W        W31570  11.905   6.731  12.127
31090W        W31571  12.404   4.472  13.352
31091W        W31572  12.104   3.841  12.821
31092W        W31573  11.167   6.663  11.369
31093W        W31574  12.983   6.027  12.087
31094W        W31575  11.858   6.822  13.966
31095W        W31576  11.335   5.645  11.662
31096W        W31577  11.220   4.188  12.661
31097W        W31578  12.768   6.153  12.718
31098W        W31579  11.020   4.007  11.738
31099W        W31580  13.684   5.213  13.665
31100W        W31581  13.561   4.599  11.237
31101W        W31582  14.078   6.271  12.885
31102W        W31583  12.739   6.755  12.716
31103W        W31584  12.151   6.859  11.627
31104W        W31585  13.433   3.762  11.057
31105W        W31586  11.233   7.022  12.798
31106W        W31587  13.430   4.780  14.433
31107W        W31588  11.413   4.310  14.432
31108W        W31589  11.144   4.910  11.765
31109W        W31590  11.835   4.899  11.490
31110W        W31591  13.598   5.226  14.307
31111W        W31592  11.941   5.507  13.016
31112W        W31593  13.415   3.793  12.136
31113W        W31594  12.546   7.224  12.639
31114W        W31595  13.760   6.686  13.576
31115W        W31596  13.344   6.835  12.687
31116W        W31597  13.363   5.815  12.281
31117W        W31598  12.825   4.040  11.352
31118W        W31599  14.506   3.668  12.074
31119W        W31600  12.194   5.303  11.237
31120W        W31601  14.360   4.640  12.227
31121W        W31602  13.052   5.810  11.104
31122W        W31603  13.988   6.010  13.852
31123W        W31604  13.642   6.711  11.319
31124W        W31605  12.257   4.386  14.225
31125W        W31606  12.077   4.970  13.466
31126W        W31607  14.169   6.465  13.743
31127W        W31608  13.269   4.415  14.120
31128W        W31609  11.113   4.886  13.897
31129W        W31610  12.873   5.363  13.623
31130W        W31611  11.230   6.121  12.280
31131W        W31612  11.377   5.418  13.170
31132W        W31613  13.694   5.704  13.520
31133W        W31614  13.466   7.084  14.331
31134W        W31615  13.362   4.823  13.884
31135W        W31616  13.639   6.877  12.289
31136W        W31617  12.641   6.597  13.612
31137W        W31618  12.126   6.952  12.881
31138W        W31619  13.931   6.123  13.300
31139W        W31620  12.981   6.195  14.437
31140W        W31621  11.586   6.148  12.776
31141W        W31622  13.932   5.907  12.421
31142W        W31623  13.573   6.973  13.172
31143W        W31624  11.551   6.702  13.042
31144W        W31625  12.572   4.754  14.252
31145W        W31626  13.023   6.920  11.763
31146W        W31627  12.331   6.175  14.401
31147W        W31628  12.457   6.413  11.778
31148W        W31629  11.678   5.153  11.037
31149W        W31630  11.393   6.132  17.459
31150W        W31631  14.098   5.862  15.229
31151W        W31632  14.228   6.947  17.256
31152W        W31633  12.146   6.938  14.782
31153W        W31634  12.229   5.090  15.765
31154W        W31635  11.744   4.938  15.929
31155W        W31636  12.735   5.753  15.363
31156W        W31637  12.410   6.845  17.718
31157W        W31638  11.059   4.406  17.681
31158W        W31639  11.821   3.686  17.483
31159W        W31640  13.515   4.074  16.370
31160W        W31641  13.164   4.945  14.940
31161W        W31642  11.100   4.171  17.156
31162W        W31643  12.721   6.180  14.909
31163W        W31644  11.153   4.963  16.602
31164W        W31645  14.505   4.713  16.338
31165W        W31646  14.269   5.756  17.197
31166W        W31647  12.577   5.089  16.224
31167W        W31648  13.123   6.428  16.593
31168W        W31649  11.623   5.862  16.825
31169W        W31650  10.982   5.390  16.396
31170W        W31651  12.018   5.362  17.588
31171W        W31652  11.905   6.589  16.287
31172W        W31653  13.026   6.278  17.421
31173W        W31654  12.246   4.918  16.646
31174W        W31655  12.538   5.702  16.289
31175W        W31656  12.595   5.511  17.625
31176W        W31657  13.836   6.437  17.746
31177W        W31658  11.417   4.019  15.744
31178W        W31659  11.944   6.277  16.743
31179W        W31660  14.407   6.060  16.033
31180W        W31661  13.820   4.460  16.600
31181W        W31662  14.105   4.413  14.695
31182W        W31663  12.537   6.921  16.754
31183W        W31664  14.311   6.387  15.192
31184W        W31665  11.440   7.173  14.946
31185W        W31666  11.833   7.219  15.622
31186W        W31667  11.630   3.973  17.048
31187W        W31668  14.253   4.991  17.323
31188W        W31669  13.658   5.413  15.782
31189W        W31670  13.624   5.101  14.809
31190W        W31671  12.832   6.245  16.949
31191W        W31672  12.638   4.575  16.148
31192W        W31673  13.238   6.662  17.142
31193W        W31674  14.109   5.453  15.564
31194W        W31675  13.011   4.111  15.580
31195W        W31676  11.668   6.805  15.263
31196W        W31677  11.039   4.304  15.862
31197W        W31678  13.825   4.911  16.336
31198W        W31679  11.283   6.528  16.251
31199W        W31680  12.624   6.878  15.121
31200W        W31681  14.016   4.904  14.585
31201W        W31682  11.039   6.662  16.749
31202W        W31683  11.830   6.234  17.229
31203W        W31684  12.203   5.594  15.848
31204W        W31685  12.225   3.999  16.941
31205W        W31686  14.454   3.761  16.238
31206W        W31687  11.673   5.633  14.706
31207W        W31688  11.328   4.666  14.885
31208W        W31689  11.390   6.622  15.679
31209W        W31690  12.521   6.105  15.927
31210W        W31691  13.853   6.964  17.641
31211W        W31692  12.779   4.606  15.325
31212W        W31693  14.162   7.004  16.097
31213W        W31694  14.552   6.513  15.829
31214W        W31695  13.179   5.805  17.313
31215W        W31696  10.945   5.356  15.519
31216W        W31697  12.056   5.771  17.092
31217W        W31698  13.260   5.035  15.470
31218W        W31699  13.137   5.525  15.574
31219W        W31700  11.480   4.945  17.048
31220W        W31701  11.355   3.738  16.129
31221W        W31702  13.123   4.085  16.690
31222W        W31703  13.126   4.419  15.031
31223W        W31704  14.309   6.812  17.785
31224W        W31705  13.276   3.893  17.824
31225W        W31706  13.725   4.361  17.542
31226W        W31707  13.525   4.299  15.812
31227W        W31708  11.658   7.009  16.202
31228W        W31709  12.316   4.726  15.188
31229W        W31710  13.937   4.494  15.533
31230W        W31711  14.304   4.976  15.478
31231W        W31712  11.973   3.729  15.184
31232W        W31713  14.294   4.263  16.219
31233W        W31714  14.444   6.512  14.664
31234W        W31715  11.351   5.715  16.366
31235W        W31716  13.268   4.302  14.596
31236W        W31717  14.402   6.634  16.316
31237W        W31718  14.441   3.828  17.066
31238W        W31719  12.886   5.040  17.620
31239W        W31720  12.979   6.379  15.323
31240W        W31721  13.053   3.650  16.372
31241W        W31722  11.665   4.553  16.435
31242W        W31723  11.219   5.753  17.209
31243W        W31724  13.078   6.946  15.915
31244W        W31725  14.272   4.543  16.787
31245W        W31726  12.909   6.890  17.554
31246W        W31727  14.252   5.949  14.759
31247W        W31728  12.687   5.432  15.820
31248W        W31729  14.539   3.943  17.561
31249W        W31730  12.688   5.778  17.155
31250W        W31731  12.905   4.664  16.600
31251W        W31732  13.757   4.962  15.438
31252W        W31733  14.044   4.695  15.080
31253W        W31734  13.853   6.735  15.469
31254W        W31735  13.687   6.338  16.265
31255W        W31736  13.583   5.417  15.243
31256W        W31737  13.016   5.627  16.229
31257W        W31738  13.897   5.415  16.296
31258W        W31739  11.272   4.430  16.720
31259W        W31740  14.050   5.482  17.547
31260W        W31741  14.401   7.100  16.693
31261W        W31742  12.331   6.544  16.095
31262W        W31743  13.338   7.077  17.419
31263W        W31744  13.332   4.407  17.183
31264W        W31745  12.539   7.115  17.244
31265W        W31746  14.236   4.069  15.710
31266W        W31747  11.010   4.709  17.049
31267W        W31748  13.166   6.354  16.062
31268W        W31749  12.422   6.945  15.675
31269W        W31750  11.537   4.125  14.933
31270W        W31751  12.641   3.779  16.743
31271W        W31752  11.669   6.899  14.591
31272W        W31753  12.043   5.365  15.342
31273W        W31754  12.697   5.994  17.655
31274W        W31755  12.527   4.352  15.645
31275W        W31756  13.883   3.949  16.073
31276W        W31757  13.603   7.231  16.401
31277W        W31758  13.015   6.879  16.741
31278W        W31759  12.411   5.916  16.702
31279W        W31760  14.181   6.639  16.828
31280W        W31761  11.875   4.142  15.597
31281W        W31762  12.397   6.439  16.557
31282W        W31763  11.880   4.370  14.622
31283W        W31764  12.681   4.979  17.016
31284W        W31765  13.529   3.845  16.886
31285W        W31766  10.949   5.688  16.771
31286W        W31767  12.653   5.506  14.929
31287W        W31768  11.921   3.821  14.699
31288W        W31769  12.659   4.902  15.750
31289W        W31770  13.629   3.878  17.449
31290W        W31771  12.217   5.890  17.558
31291W        W31772  13.638   5.702  17.668
31292W        W31773  12.144   4.458  16.566
31293W        W31774  11.570   4.414  15.964
31294W        W31775  11.356   7.126  15.640
31295W        W31776  12.688   6.456  17.765
31296W        W31777  11.723   5.941  15.124
31297W        W31778  13.403   5.326  16.345
31298W        W31779  13.683   5.125  16.744
31299W        W31780  12.888   5.799  16.678
31300W        W31781  13.358   6.173  14.810
31301W        W31782  13.030   4.194  16.138
31302W        W31783  14.509   4.472  15.406
31303W        W31784  11.003   7.061  17.437
31304W        W31785  11.420   6.287  16.969
31305W        W31786  10.987   7.133  15.201
31306W        W31787  12.886   4.403  17.007
31307W        W31788  12.249   6.426  14.856
31308W        W31789  14.154   6.808  15.042
31309W        W31790  13.129   5.461  15.056
31310W        W31791  11.972   4.652  15.573
31311W        W31792  12.804   4.562  14.625
31312W        W31793  13.741   4.033  15.420
31313W        W31794  11.071   3.881  14.868
31314W        W31795  12.357   6.200  17.158
31315W        W31796  12.156   6.116  16.250
31316W        W31797  11.898   6.068  14.648
31317W        W31798  11.139   6.309  15.416
31318W        W31799  12.251   3.849  15.681
31319W        W31800  13.310   3.926  15.186
31320W        W31801  11.255   3.858  16.763
31321W        W31802  11.303   4.821  16.133
31322W        W31803  13.992   3.929  16.539
31323W        W31804  11.414   4.427  15.353
31324W        W31805  13.985   4.115  16.969
31325W        W31806  14.381   5.318  14.654
31326W        W31807  11.673   4.076  16.473
31327W        W31808  10.935   4.338  14.891
31328W        W31809  11.721   5.727  17.452
31329W        W31810  13.079   5.125  16.631
31330W        W31811  12.946   7.204  14.927
31331W        W31812  11.092   5.711  14.624
31332W        W31813  11.348   5.289  17.381
31333W        W31814  12.339   5.394  17.175
31334W        W31815  14.107   3.753  17.437
31335W        W31816  14.505   5.363  17.428
31336W        W31817  14.493   5.563  15.114
31337W        W31818  13.356   5.895  15.213
31338W        W31819  13.830   7.195  14.908
31339W        W31820  12.424   3.761  14.867
31340W        W31821  13.963   6.360  14.810
31341W        W31822  12.166   6.447  17.558
31342W        W31823  14.292   4.438  17.356
31343W        W31824  13.503   7.097  15.324
31344W        W31825  13.742   5.716  16.691
31345W        W31826  11.992   4.132  17.358
31346W        W31827  11.964   6.380  15.309
31347W        W31828  13.719   5.878  15.573
31348W        W31829  11.487   4.504  17.297
31349W        W31830  12.816   6.566  15.761
31350W        W31831  14.566   5.126  15.942
31351W        W31832  12.788   3.759  17.661
31352W        W31833  13.568   6.464  16.740
31353W        W31834  13.090   6.610  14.876
31354W        W31835  11.100   6.502  17.718
31355W        W31836  11.843   4.494  16.956
31356W        W31837  11.813   3.842  16.066
31357W        W31838  13.434   4.684  16.758
31358W        W31839  12.232   5.855  14.958
31359W        W31840  14.230   5.797  16.457
31360W        W31841  13.944   7.237  15.677
31361W        W31842  12.043   4.257  16.122
31362W        W31843  11.812   5.750  16.212
31363W        W31844  12.125   7.161  16.962
31364W        W31845  13.351   5.445  16.927
31365W        W31846  11.200   5.243  14.842
31366W        W31847  14.334   6.901  15.539
31367W        W31848  14.171   4.225  15.158
31368W        W31849  12.310   3.744  17.561
31369W        W31850  14.016   6.546  16.019
31370W        W31851  14.045   5.102  15.924
31371W        W31852  12.162   4.775  16.140
31372W        W31853  12.407   5.037  17.464
31373W        W31854  13.518   6.190  17.327
31374W        W31855  12.168   4.644  17.439
31375W        W31856  12.147   7.110  16.055
31376W        W31857  11.576   6.430  14.819
31377W        W31858  14.093   6.188  15.629
31378W        W31859  11.697   4.980  17.515
31379W        W31860  14.470   4.910  14.996
31380W        W31861  12.215   5.967  15.467
31381W        W31862  13.314   5.349  17.548
31382W        W31863  13.205   4.977  17.092
31383W        W31864  11.765   5.349  17.121
31384W        W31865  13.975   7.237  16.950
31385W        W31866  11.430   4.021  17.531
31386W        W31867  11.769   5.044  16.584
31387W        W31868  12.138   4.858  14.706
31388W        W31869  10.941   6.617  17.251
31389W        W31870  12.526   5.326  16.694
31390W        W31871  12.349   4.351  14.799
31391W        W31872  11.484   5.167  15.580
31392W        W31873  11.255   7.019  17.017
31393W        W31874  14.050   5.245  15.125
31394W        W31875  13.581   6.370  15.774
31395W        W31876  14.145   3.758  15.247
31396W        W31877  13.665   6.233  15.258
31397W        W31878  12.567   5.291  15.343
31398W        W31879  13.754   4.095  14.866
31399W        W31880  13.819   4.702  17.052
31400W        W31881  11.528   5.295  16.259
31401W        W31882  11.822   6.234  15.908
31402W        W31883  13.585   4.854  15.873
31403W        W31884  12.608   4.233  16.569
31404W        W31885  14.570   6.144  17.080
31405W        W31886  14.488   4.131  16.641
31406W        W31887  11.027   6.961  16.017
31407W        W31888  11.536   6.148  15.553
31408W        W31889  14.325   5.586  15.998
31409W        W31890  13.679   5.763  14.878
31410W        W31891  12.974   7.284  17.090
31411W        W31892  12.646   3.716  15.407
31412W        W31893  13.359   4.585  16.266
31413W        W31894  11.045   6.172  16.598
31414W        W31895  12.298   4.134  15.239
31415W        W31896  13.096   4.599  15.802
31416W        W31897  13.301   6.009  16.924
31417W        W31898  11.455   6.614  17.359
31418W        W31899  11.897   4.394  15.096
31419W        W31900  13.414   4.536  15.421
31420W        W31901  13.372   6.644  17.658
31421W        W31902  12.057   5.236  16.257
31422W        W31903  11.712   6.934  17.122
31423W        W31904  14.457   7.051  14.723
31424W        W31905  13.315   5.985  16.407
31425W        W31906  11.751   5.634  15.649
31426W        W31907  12.122   6.641  17.044
31427W        W31908  12.500   4.060  16.085
31428W        W31909  11.111   6.044  15.015
31429W        W31910  12.630   4.995  14.885
31430W        W31911  11.276   5.544  15.904
31431W        W31912  12.566   4.186  17.368
31432W        W31913  14.238   3.895  14.795
31433W        W31914  14.543   5.992  17.568
31434W        W31915  11.690   7.246  16.657
31435W        W31916  14.549   5.868  15.531
31436W        W31917  13.079   5.135  16.044
31437W        W31918  12.846   3.747  15.934
31438W        W31919  11.905   6.731  15.771
31439W        W31920  12.404   4.472  16.996
31440W        W31921  12.104   3.841  16.465
31441W        W31922  11.167   6.663  15.013
31442W        W31923  12.983   6.027  15.731
31443W        W31924  11.858   6.822  17.610
31444W        W31925  11.335   5.645  15.306
31445W        W31926  11.220   4.188  16.305
31446W        W31927  12.768   6.153  16.362
31447W        W31928  11.020   4.007  15.382
31448W        W31929  13.684   5.213  17.309
31449W        W31930  13.561   4.599  14.881
31450W        W31931  14.078   6.271  16.529
31451W        W31932  12.739   6.755  16.360
31452W        W31933  12.151   6.859  15.271
31453W        W31934  13.433   3.762  14.701
31454W        W31935  11.233   7.022  16.442
31455W        W31936  11.144   4.910  15.409
31456W        W31937  11.835   4.899  15.134
31457W        W31938  11.941   5.507  16.660
31458W        W31939  13.415   3.793  15.780
31459W        W31940  12.546   7.224  16.283
31460W        W31941  13.760   6.686  17.220
31461W        W31942  13.344   6.835  16.331
31462W        W31943  13.363   5.815  15.925
31463W        W31944  12.825   4.040  14.996
31464W        W31945  14.506   3.668  15.718
31465W        W31946  12.194   5.303  14.881
31466W        W31947  14.360   4.640  15.871
31467W        W31948  13.052   5.810  14.748
31468W        W31949  13.988   6.010  17.496
31469W        W31950  13.642   6.711  14.963
31470W        W31951  12.077   4.970  17.110
31471W        W31952  14.169   6.465  17.387
31472W        W31953  11.113   4.886  17.541
31473W        W31954  12.873   5.363  17.267
31474W        W31955  11.230   6.121  15.924
31475W        W31956  11.377   5.418  16.814
31476W        W31957  13.694   5.704  17.164
31477W        W31958  13.466   7.084  17.975
31478W        W31959  13.362   4.823  17.528
31479W        W31960  13.639   6.877  15.933
31480W        W31961  12.641   6.597  17.256
31481W        W31962  12.126   6.952  16.525
31482W        W31963  13.931   6.123  16.944
31483W        W31964  11.586   6.148  16.420
31484W        W31965  13.932   5.907  16.065
31485W        W31966  13.573   6.973  16.816
31486W        W31967  11.551   6.702  16.686
31487W        W31968  13.023   6.920  15.407
31488W        W31969  12.457   6.413  15.422
31489W        W31970  11.678   5.153  14.681
31490W        W31971  11.017  10.884   3.359
31491W        W31972  11.393   9.777   2.882
31492W        W31973  14.098   9.507   0.652
31493W        W31974  14.228  10.592   2.679
31494W        W31975  12.146  10.583   0.205
31495W        W31976  12.229   8.735   1.188
31496W        W31977  11.744   8.583   1.352
31497W        W31978  12.735   9.398   0.786
31498W        W31979  12.410  10.490   3.141
31499W        W31980  11.059   8.051   3.104
31500W        W31981  11.821   7.331   2.906
31501W        W31982  13.515   7.719   1.793
31502W        W31983  13.164   8.590   0.363
31503W        W31984  13.734   8.024   3.454
31504W        W31985  11.100   7.816   2.579
31505W        W31986  11.199  10.435   3.600
31506W        W31987  12.721   9.825   0.332
31507W        W31988  11.153   8.608   2.025
31508W        W31989  12.046   8.499   3.262
31509W        W31990  14.505   8.358   1.761
31510W        W31991  14.269   9.401   2.620
31511W        W31992  12.577   8.734   1.647
31512W        W31993  13.123  10.073   2.016
31513W        W31994  11.623   9.507   2.248
31514W        W31995  10.982   9.035   1.819
31515W        W31996  12.018   9.007   3.011
31516W        W31997  14.289   8.790   3.265
31517W        W31998  11.905  10.234   1.710
31518W        W31999  13.026   9.923   2.844
31519W        W32000  12.246   8.563   2.069
31520W        W32001  13.535  10.120   3.560
31521W        W32002  12.614   9.440   3.570
31522W        W32003  12.595   9.156   3.048
31523W        W32004  11.004   8.547   3.570
31524W        W32005  13.836  10.082   3.169
31525W        W32006  11.417   7.664   1.167
31526W        W32007  11.944   9.922   2.166
31527W        W32008  14.407   9.705   1.456
31528W        W32009  13.820   8.105   2.023
31529W        W32010  14.105   8.058   0.118
31530W        W32011  14.570   8.859   2.424
31531W        W32012  12.537  10.566   2.177
31532W        W32013  14.311  10.032   0.615
31533W        W32014  11.440  10.818   0.369
31534W        W32015  11.833  10.864   1.045
31535W        W32016  11.630   7.618   2.471
31536W        W32017  14.253   8.636   2.746
31537W        W32018  13.658   9.058   1.205
31538W        W32019  13.624   8.746   0.232
31539W        W32020  12.832   9.890   2.372
31540W        W32021  12.638   8.220   1.571
31541W        W32022  13.238  10.307   2.565
31542W        W32023  14.109   9.098   0.987
31543W        W32024  13.011   7.756   1.003
31544W        W32025  11.668  10.450   0.686
31545W        W32026  11.039   7.949   1.285
31546W        W32027  13.825   8.556   1.759
31547W        W32028  11.283  10.173   1.674
31548W        W32029  12.624  10.523   0.544
31549W        W32030  14.016   8.549   0.008
31550W        W32031  11.039  10.307   2.172
31551W        W32032  11.830   9.879   2.652
31552W        W32033  12.203   9.239   1.271
31553W        W32034  12.225   7.644   2.364
31554W        W32035  14.454   7.406   1.661
31555W        W32036  11.673   9.278   0.129
31556W        W32037  11.328   8.311   0.308
31557W        W32038  11.390  10.267   1.102
31558W        W32039  12.521   9.750   1.350
31559W        W32040  13.853  10.609   3.064
31560W        W32041  12.779   8.251   0.748
31561W        W32042  14.162  10.649   1.520
31562W        W32043  13.839   8.502   3.118
31563W        W32044  14.552  10.158   1.252
31564W        W32045  13.179   9.450   2.736
31565W        W32046  10.945   9.001   0.942
31566W        W32047  12.056   9.416   2.515
31567W        W32048  13.260   8.680   0.893
31568W        W32049  13.137   9.170   0.997
31569W        W32050  11.480   8.590   2.471
31570W        W32051  11.465   8.466   3.393
31571W        W32052  11.355   7.383   1.552
31572W        W32053  13.123   7.730   2.113
31573W        W32054  12.771   7.915   3.276
31574W        W32055  13.126   8.064   0.454
31575W        W32056  14.309  10.457   3.208
31576W        W32057  13.276   7.538   3.247
31577W        W32058  14.295   9.839   3.369
31578W        W32059  13.725   8.006   2.965
31579W        W32060  13.525   7.944   1.235
31580W        W32061  13.918   9.078   3.639
31581W        W32062  11.658  10.654   1.625
31582W        W32063  12.316   8.371   0.611
31583W        W32064  11.885   7.655   3.275
31584W        W32065  13.937   8.139   0.956
31585W        W32066  14.304   8.621   0.901
31586W        W32067  12.047  10.838   3.372
31587W        W32068  11.973   7.374   0.607
31588W        W32069  14.294   7.908   1.642
31589W        W32070  14.444  10.157   0.087
31590W        W32071  11.351   9.360   1.789
31591W        W32072  13.268   7.947   0.019
31592W        W32073  14.402  10.279   1.739
31593W        W32074  14.441   7.473   2.489
31594W        W32075  12.886   8.685   3.043
31595W        W32076  12.979  10.024   0.746
31596W        W32077  13.379   9.318   3.486
31597W        W32078  13.053   7.295   1.795
31598W        W32079  11.665   8.198   1.858
31599W        W32080  11.219   9.398   2.632
31600W        W32081  13.078  10.591   1.338
31601W        W32082  14.272   8.188   2.210
31602W        W32083  12.909  10.535   2.977
31603W        W32084  14.252   9.594   0.182
31604W        W32085  12.687   9.077   1.243
31605W        W32086  14.539   7.588   2.984
31606W        W32087  12.688   9.423   2.578
31607W        W32088  12.905   8.309   2.023
31608W        W32089  13.757   8.607   0.861
31609W        W32090  14.044   8.340   0.503
31610W        W32091  13.853  10.380   0.892
31611W        W32092  13.687   9.983   1.688
31612W        W32093  13.583   9.062   0.666
31613W        W32094  13.016   9.272   1.652
31614W        W32095  13.897   9.060   1.719
31615W        W32096  11.272   8.075   2.143
31616W        W32097  14.050   9.127   2.970
31617W        W32098  14.401  10.745   2.116
31618W        W32099  12.331  10.189   1.518
31619W        W32100  13.338  10.722   2.842
31620W        W32101  13.332   8.052   2.606
31621W        W32102  12.539  10.760   2.667
31622W        W32103  14.236   7.714   1.133
31623W        W32104  14.027   9.033   2.434
31624W        W32105  11.010   8.354   2.472
31625W        W32106  13.870   8.149   1.490
31626W        W32107  14.281   8.300   3.267
31627W        W32108  13.166   9.999   1.485
31628W        W32109  12.422  10.590   1.098
31629W        W32110  11.537   7.770   0.356
31630W        W32111  12.641   7.424   2.166
31631W        W32112  11.669  10.544   0.014
31632W        W32113  12.043   9.010   0.765
31633W        W32114  12.697   9.639   3.078
31634W        W32115  12.527   7.997   1.068
31635W        W32116  13.883   7.594   1.496
31636W        W32117  13.603  10.876   1.824
31637W        W32118  13.015  10.524   2.164
31638W        W32119  12.411   9.561   2.125
31639W        W32120  14.181  10.284   2.251
31640W        W32121  11.875   7.787   1.020
31641W        W32122  12.397  10.084   1.980
31642W        W32123  11.880   8.015   0.045
31643W        W32124  12.681   8.624   2.439
31644W        W32125  13.529   7.490   2.309
31645W        W32126  10.949   9.333   2.194
31646W        W32127  12.653   9.151   0.352
31647W        W32128  11.921   7.466   0.122
31648W        W32129  12.659   8.547   1.173
31649W        W32130  13.629   7.523   2.872
31650W        W32131  12.217   9.535   2.981
31651W        W32132  13.021   9.317   3.198
31652W        W32133  13.638   9.347   3.091
31653W        W32134  12.922   7.487   3.596
31654W        W32135  12.144   8.103   1.989
31655W        W32136  11.570   8.059   1.387
31656W        W32137  11.356  10.771   1.063
31657W        W32138  12.688  10.101   3.188
31658W        W32139  11.723   9.586   0.547
31659W        W32140  13.403   8.971   1.768
31660W        W32141  13.683   8.770   2.167
31661W        W32142  12.888   9.444   2.101
31662W        W32143  13.358   9.818   0.233
31663W        W32144  14.509   8.117   0.829
31664W        W32145  11.003  10.706   2.860
31665W        W32146  11.420   9.932   2.392
31666W        W32147  10.987  10.778   0.624
31667W        W32148  12.886   8.048   2.430
31668W        W32149  12.249  10.071   0.279
31669W        W32150  14.154  10.453   0.465
31670W        W32151  13.129   9.106   0.479
31671W        W32152  11.972   8.297   0.996
31672W        W32153  12.804   8.207   0.048
31673W        W32154  13.388   9.772   3.226
31674W        W32155  13.741   7.678   0.843
31675W        W32156  11.071   7.526   0.291
31676W        W32157  12.357   9.845   2.581
31677W        W32158  12.156   9.761   1.673
31678W        W32159  11.898   9.713   0.071
31679W        W32160  11.139   9.954   0.839
31680W        W32161  11.643   9.024   3.281
31681W        W32162  12.347   7.584   3.467
31682W        W32163  13.056   7.726   2.823
31683W        W32164  12.251   7.494   1.104
31684W        W32165  13.310   7.571   0.609
31685W        W32166  11.255   7.503   2.186
31686W        W32167  11.303   8.466   1.556
31687W        W32168  13.992   7.574   1.962
31688W        W32169  11.414   8.072   0.776
31689W        W32170  13.985   7.760   2.392
31690W        W32171  14.381   8.963   0.077
31691W        W32172  11.673   7.721   1.896
31692W        W32173  12.787   8.293   2.836
31693W        W32174  10.935   7.983   0.314
31694W        W32175  11.721   9.372   2.875
31695W        W32176  13.079   8.770   2.054
31696W        W32177  12.946  10.849   0.350
31697W        W32178  11.092   9.356   0.047
31698W        W32179  11.827   9.767   3.173
31699W        W32180  11.348   8.934   2.804
31700W        W32181  12.339   9.039   2.598
31701W        W32182  14.107   7.398   2.860
31702W        W32183  14.505   9.008   2.851
31703W        W32184  14.493   9.208   0.537
31704W        W32185  13.356   9.540   0.636
31705W        W32186  13.830  10.840   0.331
31706W        W32187  13.007   8.830   3.473
31707W        W32188  11.337   9.797   3.513
31708W        W32189  14.543   7.719   3.465
31709W        W32190  14.261   8.647   2.086
31710W        W32191  12.569  10.777   3.563
31711W        W32192  12.424   7.406   0.290
31712W        W32193  13.963  10.005   0.233
31713W        W32194  11.732   8.098   3.119
31714W        W32195  14.292   8.083   2.779
31715W        W32196  13.503  10.742   0.747
31716W        W32197  13.742   9.361   2.114
31717W        W32198  11.992   7.777   2.781
31718W        W32199  12.461   8.846   3.538
31719W        W32200  11.964  10.025   0.732
31720W        W32201  13.719   9.523   0.996
31721W        W32202  11.487   8.149   2.720
31722W        W32203  12.816  10.211   1.184
31723W        W32204  14.566   8.771   1.365
31724W        W32205  12.788   7.404   3.084
31725W        W32206  13.568  10.109   2.163
31726W        W32207  13.871  10.453   1.871
31727W        W32208  13.090  10.255   0.299
31728W        W32209  11.100  10.147   3.141
31729W        W32210  11.843   8.139   2.379
31730W        W32211  11.813   7.487   1.489
31731W        W32212  13.434   8.329   2.181
31732W        W32213  12.232   9.500   0.381
31733W        W32214  14.230   9.442   1.880
31734W        W32215  11.557  10.200   3.303
31735W        W32216  13.944  10.882   1.100
31736W        W32217  12.043   7.902   1.545
31737W        W32218  11.812   9.395   1.635
31738W        W32219  12.125  10.806   2.385
31739W        W32220  14.192  10.902   3.417
31740W        W32221  13.351   9.090   2.350
31741W        W32222  11.200   8.888   0.265
31742W        W32223  14.334  10.546   0.962
31743W        W32224  14.171   7.870   0.581
31744W        W32225  12.310   7.389   2.984
31745W        W32226  14.016  10.191   1.442
31746W        W32227  14.045   8.747   1.347
31747W        W32228  12.162   8.420   1.563
31748W        W32229  12.407   8.682   2.887
31749W        W32230  13.518   9.835   2.750
31750W        W32231  12.168   8.289   2.862
31751W        W32232  12.147  10.755   1.478
31752W        W32233  11.464  10.714   3.112
31753W        W32234  11.576  10.075   0.242
31754W        W32235  14.093   9.833   1.052
31755W        W32236  11.697   8.625   2.938
31756W        W32237  14.470   8.555   0.419
31757W        W32238  12.215   9.612   0.890
31758W        W32239  13.314   8.994   2.971
31759W        W32240  13.205   8.622   2.515
31760W        W32241  11.765   8.994   2.544
31761W        W32242  13.975  10.882   2.373
31762W        W32243  13.766   7.516   3.367
31763W        W32244  11.430   7.666   2.954
31764W        W32245  11.769   8.689   2.007
31765W        W32246  12.138   8.503   0.129
31766W        W32247  10.941  10.262   2.674
31767W        W32248  12.526   8.971   2.117
31768W        W32249  12.349   7.996   0.222
31769W        W32250  11.484   8.812   1.003
31770W        W32251  11.255  10.664   2.440
31771W        W32252  14.050   8.890   0.548
31772W        W32253  14.145   7.806   3.234
31773W        W32254  13.581  10.015   1.197
31774W        W32255  11.179   8.939   3.374
31775W        W32256  14.145   7.403   0.670
31776W        W32257  13.665   9.878   0.681
31777W        W32258  12.567   8.936   0.766
31778W        W32259  13.754   7.740   0.289
31779W        W32260  13.819   8.347   2.475
31780W        W32261  11.528   8.940   1.682
31781W        W32262  11.822   9.879   1.331
31782W        W32263  13.585   8.499   1.296
31783W        W32264  12.608   7.878   1.992
31784W        W32265  14.570   9.789   2.503
31785W        W32266  14.488   7.776   2.064
31786W        W32267  11.027  10.606   1.440
31787W        W32268  11.536   9.793   0.976
31788W        W32269  11.451   7.410   3.529
31789W        W32270  12.570  10.263   3.631
31790W        W32271  14.325   9.231   1.421
31791W        W32272  13.679   9.408   0.301
31792W        W32273  12.974  10.929   2.513
31793W        W32274  13.831   9.651   3.550
31794W        W32275  12.646   7.361   0.830
31795W        W32276  13.359   8.230   1.689
31796W        W32277  11.045   9.817   2.021
31797W        W32278  12.298   7.779   0.662
31798W        W32279  12.102   9.263   3.511
31799W        W32280  13.096   8.244   1.225
31800W        W32281  13.301   9.654   2.347
31801W        W32282  11.455  10.259   2.782
31802W        W32283  12.046  10.242   3.505
31803W        W32284  11.897   8.039   0.519
31804W        W32285  13.414   8.181   0.844
31805W        W32286  13.372  10.289   3.081
31806W        W32287  12.057   8.881   1.680
31807W        W32288  11.712  10.579   2.545
31808W        W32289  14.457  10.696   0.146
31809W        W32290  11.320   9.368   3.142
31810W        W32291  13.315   9.630   1.830
31811W        W32292  11.751   9.279   1.072
31812W        W32293  12.122  10.286   2.467
31813W        W32294  12.500   7.705   1.508
31814W        W32295  11.111   9.689   0.438
31815W        W32296  12.630   8.640   0.308
31816W        W32297  11.276   9.189   1.327
31817W        W32298  12.566   7.831   2.791
31818W        W32299  14.238   7.540   0.218
31819W        W32300  14.331   9.286   3.317
31820W        W32301  12.985  10.543   3.469
31821W        W32302  14.543   9.637   2.991
31822W        W32303  13.951  10.435   3.602
31823W        W32304  11.690  10.891   2.080
31824W        W32305  14.549   9.513   0.954
31825W        W32306  13.079   8.780   1.467
31826W        W32307  12.846   7.392   1.357
31827W        W32308  11.905  10.376   1.194
31828W        W32309  12.404   8.117   2.419
31829W        W32310  12.104   7.486   1.888
31830W        W32311  11.167  10.308   0.436
31831W        W32312  12.983   9.672   1.154
31832W        W32313  11.858  10.467   3.033
31833W        W32314  11.335   9.290   0.729
31834W        W32315  11.220   7.833   1.728
31835W        W32316  12.768   9.798   1.785
31836W        W32317  11.020   7.652   0.805
31837W        W32318  13.684   8.858   2.732
31838W        W32319  13.561   8.244   0.304
31839W        W32320  12.739  10.400   1.783
31840W        W32321  12.151  10.504   0.694
31841W        W32322  11.233  10.667   1.865
31842W        W32323  13.430   8.425   3.500
31843W        W32324  11.413   7.955   3.499
31844W        W32325  11.144   8.555   0.832
31845W        W32326  11.835   8.544   0.557
31846W        W32327  13.598   8.871   3.374
31847W        W32328  11.941   9.152   2.083
31848W        W32329  13.415   7.438   1.203
31849W        W32330  12.546  10.869   1.706
31850W        W32331  13.760  10.331   2.643
31851W        W32332  13.344  10.480   1.754
31852W        W32333  13.363   9.460   1.348
31853W        W32334  12.825   7.685   0.419
31854W        W32335  14.506   7.313   1.141
31855W        W32336  12.194   8.948   0.304
31856W        W32337  14.360   8.285   1.294
31857W        W32338  13.052   9.455   0.171
31858W        W32339  13.988   9.655   2.919
31859W        W32340  13.642  10.356   0.386
31860W        W32341  12.257   8.031   3.292
31861W        W32342  12.077   8.615   2.533
31862W        W32343  14.169  10.110   2.810
31863W        W32344  13.269   8.060   3.187
31864W        W32345  11.113   8.531   2.964
31865W        W32346  12.873   9.008   2.690
31866W        W32347  11.230   9.766   1.347
31867W        W32348  11.377   9.063   2.237
31868W        W32349  13.694   9.349   2.587
31869W        W32350  13.466  10.729   3.398
31870W        W32351  13.362   8.468   2.951
31871W        W32352  13.639  10.522   1.356
31872W        W32353  12.126  10.597   1.948
31873W        W32354  13.931   9.768   2.367
31874W        W32355  12.981   9.840   3.504
31875W        W32356  11.586   9.793   1.843
31876W        W32357  13.932   9.552   1.488
31877W        W32358  13.573  10.618   2.239
31878W        W32359  11.551  10.347   2.109
31879W        W32360  12.572   8.399   3.319
31880W        W32361  13.023  10.565   0.830
31881W        W32362  12.331   9.820   3.468
31882W        W32363  12.457  10.058   0.845
31883W        W32364  11.678   8.798   0.104
31884W        W32365  11.017  10.884   7.003
31885W        W32366  11.393   9.777   6.526
31886W        W32367  14.098   9.507   4.296
31887W        W32368  14.228  10.592   6.323
31888W        W32369  12.146  10.583   3.849
31889W        W32370  12.229   8.735   4.832
31890W        W32371  11.744   8.583   4.996
31891W        W32372  12.735   9.398   4.430
31892W        W32373  12.410  10.490   6.785
31893W        W32374  11.059   8.051   6.748
31894W        W32375  11.821   7.331   6.550
31895W        W32376  13.515   7.719   5.437
31896W        W32377  13.164   8.590   4.007
31897W        W32378  13.734   8.024   7.098
31898W        W32379  11.100   7.816   6.223
31899W        W32380  11.199  10.435   7.244
31900W        W32381  12.721   9.825   3.976
31901W        W32382  11.153   8.608   5.669
31902W        W32383  12.046   8.499   6.906
31903W        W32384  14.505   8.358   5.405
31904W        W32385  14.269   9.401   6.264
31905W        W32386  12.577   8.734   5.291
31906W        W32387  13.123  10.073   5.660
31907W        W32388  11.623   9.507   5.892
31908W        W32389  10.982   9.035   5.463
31909W        W32390  12.018   9.007   6.655
31910W        W32391  14.289   8.790   6.909
31911W        W32392  11.905  10.234   5.354
31912W        W32393  13.026   9.923   6.488
31913W        W32394  12.246   8.563   5.713
31914W        W32395  12.538   9.347   5.356
31915W        W32396  13.535  10.120   7.204
31916W        W32397  12.614   9.440   7.214
31917W        W32398  12.595   9.156   6.692
31918W        W32399  11.004   8.547   7.214
31919W        W32400  13.836  10.082   6.813
31920W        W32401  11.417   7.664   4.811
31921W        W32402  11.944   9.922   5.810
31922W        W32403  14.407   9.705   5.100
31923W        W32404  13.820   8.105   5.667
31924W        W32405  14.105   8.058   3.762
31925W        W32406  14.570   8.859   6.068
31926W        W32407  12.537  10.566   5.821
31927W        W32408  14.311  10.032   4.259
31928W        W32409  11.440  10.818   4.013
31929W        W32410  11.833  10.864   4.689
31930W        W32411  11.630   7.618   6.115
31931W        W32412  14.253   8.636   6.390
31932W        W32413  13.658   9.058   4.849
31933W        W32414  13.624   8.746   3.876
31934W        W32415  12.832   9.890   6.016
31935W        W32416  12.638   8.220   5.215
31936W        W32417  13.238  10.307   6.209
31937W        W32418  14.109   9.098   4.631
31938W        W32419  13.011   7.756   4.647
31939W        W32420  11.668  10.450   4.330
31940W        W32421  11.039   7.949   4.929
31941W        W32422  13.825   8.556   5.403
31942W        W32423  11.283  10.173   5.318
31943W        W32424  12.624  10.523   4.188
31944W        W32425  14.016   8.549   3.652
31945W        W32426  11.039  10.307   5.816
31946W        W32427  11.830   9.879   6.296
31947W        W32428  12.203   9.239   4.915
31948W        W32429  12.225   7.644   6.008
31949W        W32430  14.454   7.406   5.305
31950W        W32431  11.673   9.278   3.773
31951W        W32432  11.328   8.311   3.952
31952W        W32433  11.390  10.267   4.746
31953W        W32434  12.521   9.750   4.994
31954W        W32435  13.853  10.609   6.708
31955W        W32436  12.779   8.251   4.392
31956W        W32437  14.162  10.649   5.164
31957W        W32438  13.839   8.502   6.762
31958W        W32439  14.552  10.158   4.896
31959W        W32440  13.179   9.450   6.380
31960W        W32441  10.945   9.001   4.586
31961W        W32442  12.056   9.416   6.159
31962W        W32443  13.137   9.170   4.641
31963W        W32444  11.465   8.466   7.037
31964W        W32445  11.355   7.383   5.196
31965W        W32446  13.123   7.730   5.757
31966W        W32447  12.771   7.915   6.920
31967W        W32448  13.126   8.064   4.098
31968W        W32449  14.309  10.457   6.852
31969W        W32450  13.276   7.538   6.891
31970W        W32451  14.295   9.839   7.013
31971W        W32452  13.725   8.006   6.609
31972W        W32453  13.525   7.944   4.879
31973W        W32454  13.918   9.078   7.283
31974W        W32455  11.658  10.654   5.269
31975W        W32456  12.316   8.371   4.255
31976W        W32457  11.885   7.655   6.919
31977W        W32458  13.937   8.139   4.600
31978W        W32459  14.304   8.621   4.545
31979W        W32460  12.047  10.838   7.016
31980W        W32461  11.973   7.374   4.251
31981W        W32462  14.294   7.908   5.286
31982W        W32463  14.444  10.157   3.731
31983W        W32464  11.351   9.360   5.433
31984W        W32465  13.268   7.947   3.663
31985W        W32466  14.402  10.279   5.383
31986W        W32467  14.441   7.473   6.133
31987W        W32468  12.886   8.685   6.687
31988W        W32469  12.979  10.024   4.390
31989W        W32470  13.379   9.318   7.130
31990W        W32471  13.053   7.295   5.439
31991W        W32472  11.665   8.198   5.502
31992W        W32473  11.219   9.398   6.276
31993W        W32474  13.078  10.591   4.982
31994W        W32475  14.272   8.188   5.854
31995W        W32476  12.909  10.535   6.621
31996W        W32477  14.252   9.594   3.826
31997W        W32478  12.687   9.077   4.887
31998W        W32479  14.539   7.588   6.628
31999W        W32480  12.688   9.423   6.222
32000W        W32481  12.905   8.309   5.667
32001W        W32482  13.757   8.607   4.505
32002W        W32483  14.044   8.340   4.147
32003W        W32484  13.853  10.380   4.536
32004W        W32485  13.687   9.983   5.332
32005W        W32486  13.583   9.062   4.310
32006W        W32487  13.016   9.272   5.296
32007W        W32488  13.897   9.060   5.363
32008W        W32489  11.272   8.075   5.787
32009W        W32490  14.050   9.127   6.614
32010W        W32491  14.401  10.745   5.760
32011W        W32492  12.331  10.189   5.162
32012W        W32493  13.338  10.722   6.486
32013W        W32494  13.332   8.052   6.250
32014W        W32495  12.539  10.760   6.311
32015W        W32496  14.236   7.714   4.777
32016W        W32497  14.027   9.033   6.078
32017W        W32498  11.010   8.354   6.116
32018W        W32499  13.870   8.149   5.134
32019W        W32500  14.281   8.300   6.911
32020W        W32501  13.166   9.999   5.129
32021W        W32502  12.422  10.590   4.742
32022W        W32503  11.537   7.770   4.000
32023W        W32504  12.641   7.424   5.810
32024W        W32505  11.669  10.544   3.658
32025W        W32506  12.043   9.010   4.409
32026W        W32507  12.697   9.639   6.722
32027W        W32508  12.527   7.997   4.712
32028W        W32509  13.883   7.594   5.140
32029W        W32510  13.603  10.876   5.468
32030W        W32511  13.015  10.524   5.808
32031W        W32512  12.411   9.561   5.769
32032W        W32513  14.181  10.284   5.895
32033W        W32514  11.875   7.787   4.664
32034W        W32515  12.397  10.084   5.624
32035W        W32516  11.880   8.015   3.689
32036W        W32517  12.681   8.624   6.083
32037W        W32518  13.529   7.490   5.953
32038W        W32519  10.949   9.333   5.838
32039W        W32520  12.653   9.151   3.996
32040W        W32521  11.921   7.466   3.766
32041W        W32522  12.659   8.547   4.817
32042W        W32523  13.629   7.523   6.516
32043W        W32524  12.217   9.535   6.625
32044W        W32525  13.021   9.317   6.842
32045W        W32526  13.638   9.347   6.735
32046W        W32527  12.922   7.487   7.240
32047W        W32528  12.144   8.103   5.633
32048W        W32529  11.570   8.059   5.031
32049W        W32530  11.356  10.771   4.707
32050W        W32531  12.688  10.101   6.832
32051W        W32532  11.723   9.586   4.191
32052W        W32533  13.403   8.971   5.412
32053W        W32534  13.683   8.770   5.811
32054W        W32535  12.888   9.444   5.745
32055W        W32536  13.358   9.818   3.877
32056W        W32537  13.030   7.839   5.205
32057W        W32538  14.509   8.117   4.473
32058W        W32539  11.003  10.706   6.504
32059W        W32540  11.420   9.932   6.036
32060W        W32541  10.987  10.778   4.268
32061W        W32542  12.886   8.048   6.074
32062W        W32543  12.249  10.071   3.923
32063W        W32544  14.154  10.453   4.109
32064W        W32545  13.129   9.106   4.123
32065W        W32546  11.972   8.297   4.640
32066W        W32547  12.804   8.207   3.692
32067W        W32548  13.388   9.772   6.870
32068W        W32549  13.741   7.678   4.487
32069W        W32550  11.071   7.526   3.935
32070W        W32551  12.357   9.845   6.225
32071W        W32552  12.156   9.761   5.317
32072W        W32553  11.898   9.713   3.715
32073W        W32554  11.139   9.954   4.483
32074W        W32555  11.643   9.024   6.925
32075W        W32556  12.347   7.584   7.111
32076W        W32557  13.056   7.726   6.467
32077W        W32558  12.251   7.494   4.748
32078W        W32559  13.310   7.571   4.253
32079W        W32560  11.255   7.503   5.830
32080W        W32561  11.303   8.466   5.200
32081W        W32562  13.992   7.574   5.606
32082W        W32563  11.414   8.072   4.420
32083W        W32564  13.985   7.760   6.036
32084W        W32565  14.381   8.963   3.721
32085W        W32566  11.673   7.721   5.540
32086W        W32567  12.787   8.293   6.480
32087W        W32568  10.935   7.983   3.958
32088W        W32569  11.721   9.372   6.519
32089W        W32570  13.079   8.770   5.698
32090W        W32571  12.946  10.849   3.994
32091W        W32572  11.092   9.356   3.691
32092W        W32573  11.827   9.767   6.817
32093W        W32574  11.348   8.934   6.448
32094W        W32575  12.339   9.039   6.242
32095W        W32576  14.107   7.398   6.504
32096W        W32577  14.505   9.008   6.495
32097W        W32578  14.493   9.208   4.181
32098W        W32579  13.356   9.540   4.280
32099W        W32580  13.830  10.840   3.975
32100W        W32581  13.007   8.830   7.117
32101W        W32582  11.337   9.797   7.157
32102W        W32583  14.543   7.719   7.109
32103W        W32584  14.261   8.647   5.730
32104W        W32585  12.569  10.777   7.207
32105W        W32586  12.424   7.406   3.934
32106W        W32587  13.963  10.005   3.877
32107W        W32588  11.732   8.098   6.763
32108W        W32589  12.166  10.092   6.625
32109W        W32590  14.292   8.083   6.423
32110W        W32591  13.503  10.742   4.391
32111W        W32592  13.742   9.361   5.758
32112W        W32593  11.992   7.777   6.425
32113W        W32594  12.461   8.846   7.182
32114W        W32595  11.964  10.025   4.376
32115W        W32596  13.719   9.523   4.640
32116W        W32597  11.487   8.149   6.364
32117W        W32598  12.816  10.211   4.828
32118W        W32599  14.566   8.771   5.009
32119W        W32600  12.788   7.404   6.728
32120W        W32601  13.568  10.109   5.807
32121W        W32602  13.871  10.453   5.515
32122W        W32603  13.090  10.255   3.943
32123W        W32604  11.100  10.147   6.785
32124W        W32605  11.843   8.139   6.023
32125W        W32606  11.813   7.487   5.133
32126W        W32607  13.434   8.329   5.825
32127W        W32608  12.232   9.500   4.025
32128W        W32609  14.230   9.442   5.524
32129W        W32610  11.557  10.200   6.947
32130W        W32611  13.944  10.882   4.744
32131W        W32612  12.043   7.902   5.189
32132W        W32613  11.812   9.395   5.279
32133W        W32614  12.125  10.806   6.029
32134W        W32615  14.192  10.902   7.061
32135W        W32616  13.351   9.090   5.994
32136W        W32617  11.200   8.888   3.909
32137W        W32618  14.334  10.546   4.606
32138W        W32619  14.171   7.870   4.225
32139W        W32620  12.310   7.389   6.628
32140W        W32621  14.016  10.191   5.086
32141W        W32622  14.045   8.747   4.991
32142W        W32623  12.162   8.420   5.207
32143W        W32624  12.407   8.682   6.531
32144W        W32625  13.518   9.835   6.394
32145W        W32626  12.168   8.289   6.506
32146W        W32627  12.147  10.755   5.122
32147W        W32628  11.464  10.714   6.756
32148W        W32629  11.576  10.075   3.886
32149W        W32630  14.093   9.833   4.696
32150W        W32631  11.697   8.625   6.582
32151W        W32632  14.470   8.555   4.063
32152W        W32633  12.215   9.612   4.534
32153W        W32634  13.314   8.994   6.615
32154W        W32635  13.205   8.622   6.159
32155W        W32636  11.765   8.994   6.188
32156W        W32637  13.975  10.882   6.017
32157W        W32638  13.766   7.516   7.011
32158W        W32639  11.430   7.666   6.598
32159W        W32640  11.769   8.689   5.651
32160W        W32641  12.138   8.503   3.773
32161W        W32642  10.941  10.262   6.318
32162W        W32643  12.526   8.971   5.761
32163W        W32644  12.349   7.996   3.866
32164W        W32645  11.484   8.812   4.647
32165W        W32646  11.255  10.664   6.084
32166W        W32647  14.050   8.890   4.192
32167W        W32648  14.145   7.806   6.878
32168W        W32649  13.581  10.015   4.841
32169W        W32650  11.179   8.939   7.018
32170W        W32651  14.145   7.403   4.314
32171W        W32652  13.665   9.878   4.325
32172W        W32653  12.567   8.936   4.410
32173W        W32654  13.754   7.740   3.933
32174W        W32655  13.819   8.347   6.119
32175W        W32656  11.528   8.940   5.326
32176W        W32657  11.822   9.879   4.975
32177W        W32658  13.585   8.499   4.940
32178W        W32659  12.608   7.878   5.636
32179W        W32660  14.570   9.789   6.147
32180W        W32661  14.488   7.776   5.708
32181W        W32662  11.027  10.606   5.084
32182W        W32663  11.536   9.793   4.620
32183W        W32664  11.451   7.410   7.173
32184W        W32665  12.570  10.263   7.275
32185W        W32666  14.325   9.231   5.065
32186W        W32667  13.679   9.408   3.945
32187W        W32668  12.974  10.929   6.157
32188W        W32669  13.831   9.651   7.194
32189W        W32670  12.646   7.361   4.474
32190W        W32671  13.359   8.230   5.333
32191W        W32672  11.045   9.817   5.665
32192W        W32673  12.298   7.779   4.306
32193W        W32674  12.102   9.263   7.155
32194W        W32675  13.096   8.244   4.869
32195W        W32676  13.301   9.654   5.991
32196W        W32677  11.455  10.259   6.426
32197W        W32678  12.046  10.242   7.149
32198W        W32679  11.897   8.039   4.163
32199W        W32680  13.414   8.181   4.488
32200W        W32681  13.372  10.289   6.725
32201W        W32682  12.057   8.881   5.324
32202W        W32683  11.712  10.579   6.189
32203W        W32684  14.457  10.696   3.790
32204W        W32685  11.320   9.368   6.786
32205W        W32686  13.315   9.630   5.474
32206W        W32687  11.751   9.279   4.716
32207W        W32688  12.122  10.286   6.111
32208W        W32689  12.500   7.705   5.152
32209W        W32690  12.630   8.640   3.952
32210W        W32691  11.276   9.189   4.971
32211W        W32692  12.566   7.831   6.435
32212W        W32693  14.238   7.540   3.862
32213W        W32694  14.331   9.286   6.961
32214W        W32695  12.985  10.543   7.113
32215W        W32696  14.543   9.637   6.635
32216W        W32697  13.951  10.435   7.246
32217W        W32698  11.690  10.891   5.724
32218W        W32699  14.549   9.513   4.598
32219W        W32700  13.079   8.780   5.111
32220W        W32701  12.846   7.392   5.001
32221W        W32702  11.905  10.376   4.838
32222W        W32703  12.404   8.117   6.063
32223W        W32704  12.104   7.486   5.532
32224W        W32705  11.167  10.308   4.080
32225W        W32706  12.983   9.672   4.798
32226W        W32707  11.858  10.467   6.677
32227W        W32708  11.335   9.290   4.373
32228W        W32709  11.220   7.833   5.372
32229W        W32710  12.768   9.798   5.429
32230W        W32711  11.020   7.652   4.449
32231W        W32712  13.684   8.858   6.376
32232W        W32713  13.561   8.244   3.948
32233W        W32714  14.078   9.916   5.596
32234W        W32715  12.739  10.400   5.427
32235W        W32716  12.151  10.504   4.338
32236W        W32717  13.433   7.407   3.768
32237W        W32718  11.233  10.667   5.509
32238W        W32719  13.430   8.425   7.144
32239W        W32720  11.413   7.955   7.143
32240W        W32721  11.144   8.555   4.476
32241W        W32722  11.835   8.544   4.201
32242W        W32723  13.598   8.871   7.018
32243W        W32724  11.941   9.152   5.727
32244W        W32725  13.415   7.438   4.847
32245W        W32726  12.546  10.869   5.350
32246W        W32727  13.760  10.331   6.287
32247W        W32728  13.344  10.480   5.398
32248W        W32729  13.363   9.460   4.992
32249W        W32730  12.825   7.685   4.063
32250W        W32731  14.506   7.313   4.785
32251W        W32732  12.194   8.948   3.948
32252W        W32733  14.360   8.285   4.938
32253W        W32734  13.052   9.455   3.815
32254W        W32735  13.988   9.655   6.563
32255W        W32736  13.642  10.356   4.030
32256W        W32737  12.257   8.031   6.936
32257W        W32738  12.077   8.615   6.177
32258W        W32739  14.169  10.110   6.454
32259W        W32740  13.269   8.060   6.831
32260W        W32741  11.113   8.531   6.608
32261W        W32742  12.873   9.008   6.334
32262W        W32743  11.230   9.766   4.991
32263W        W32744  11.377   9.063   5.881
32264W        W32745  13.694   9.349   6.231
32265W        W32746  13.466  10.729   7.042
32266W        W32747  13.362   8.468   6.595
32267W        W32748  13.639  10.522   5.000
32268W        W32749  12.641  10.242   6.323
32269W        W32750  12.126  10.597   5.592
32270W        W32751  13.931   9.768   6.011
32271W        W32752  12.981   9.840   7.148
32272W        W32753  11.586   9.793   5.487
32273W        W32754  13.932   9.552   5.132
32274W        W32755  13.573  10.618   5.883
32275W        W32756  11.551  10.347   5.753
32276W        W32757  12.572   8.399   6.963
32277W        W32758  13.023  10.565   4.474
32278W        W32759  12.331   9.820   7.112
32279W        W32760  12.457  10.058   4.489
32280W        W32761  11.678   8.798   3.748
32281W        W32762  11.017  10.884  10.648
32282W        W32763  11.393   9.777  10.171
32283W        W32764  14.098   9.507   7.941
32284W        W32765  14.228  10.592   9.968
32285W        W32766  12.146  10.583   7.494
32286W        W32767  12.229   8.735   8.477
32287W        W32768  11.744   8.583   8.641
32288W        W32769  12.735   9.398   8.075
32289W        W32770  12.410  10.490  10.430
32290W        W32771  11.059   8.051  10.393
32291W        W32772  11.821   7.331  10.195
32292W        W32773  13.515   7.719   9.082
32293W        W32774  13.164   8.590   7.652
32294W        W32775  13.734   8.024  10.743
32295W        W32776  11.100   7.816   9.868
32296W        W32777  11.199  10.435  10.889
32297W        W32778  12.721   9.825   7.621
32298W        W32779  11.153   8.608   9.314
32299W        W32780  12.046   8.499  10.551
32300W        W32781  14.505   8.358   9.050
32301W        W32782  14.269   9.401   9.909
32302W        W32783  12.577   8.734   8.936
32303W        W32784  11.623   9.507   9.537
32304W        W32785  10.982   9.035   9.108
32305W        W32786  12.018   9.007  10.300
32306W        W32787  14.289   8.790  10.554
32307W        W32788  11.905  10.234   8.999
32308W        W32789  13.026   9.923  10.133
32309W        W32790  12.246   8.563   9.358
32310W        W32791  12.538   9.347   9.001
32311W        W32792  13.535  10.120  10.849
32312W        W32793  12.614   9.440  10.859
32313W        W32794  12.595   9.156  10.337
32314W        W32795  11.004   8.547  10.859
32315W        W32796  13.836  10.082  10.458
32316W        W32797  11.417   7.664   8.456
32317W        W32798  11.944   9.922   9.455
32318W        W32799  14.407   9.705   8.745
32319W        W32800  13.820   8.105   9.312
32320W        W32801  14.105   8.058   7.407
32321W        W32802  14.570   8.859   9.713
32322W        W32803  12.537  10.566   9.466
32323W        W32804  14.311  10.032   7.904
32324W        W32805  11.440  10.818   7.658
32325W        W32806  11.833  10.864   8.334
32326W        W32807  11.630   7.618   9.760
32327W        W32808  14.253   8.636  10.035
32328W        W32809  13.658   9.058   8.494
32329W        W32810  13.624   8.746   7.521
32330W        W32811  12.832   9.890   9.661
32331W        W32812  12.638   8.220   8.860
32332W        W32813  13.238  10.307   9.854
32333W        W32814  14.109   9.098   8.276
32334W        W32815  13.011   7.756   8.292
32335W        W32816  11.668  10.450   7.975
32336W        W32817  11.039   7.949   8.574
32337W        W32818  13.825   8.556   9.048
32338W        W32819  11.283  10.173   8.963
32339W        W32820  12.624  10.523   7.833
32340W        W32821  14.016   8.549   7.297
32341W        W32822  11.039  10.307   9.461
32342W        W32823  11.830   9.879   9.941
32343W        W32824  12.203   9.239   8.560
32344W        W32825  12.225   7.644   9.653
32345W        W32826  14.454   7.406   8.950
32346W        W32827  11.673   9.278   7.418
32347W        W32828  11.328   8.311   7.597
32348W        W32829  11.390  10.267   8.391
32349W        W32830  12.521   9.750   8.639
32350W        W32831  13.853  10.609  10.353
32351W        W32832  12.779   8.251   8.037
32352W        W32833  14.162  10.649   8.809
32353W        W32834  13.839   8.502  10.407
32354W        W32835  14.552  10.158   8.541
32355W        W32836  13.179   9.450  10.025
32356W        W32837  10.945   9.001   8.231
32357W        W32838  12.056   9.416   9.804
32358W        W32839  13.260   8.680   8.182
32359W        W32840  13.137   9.170   8.286
32360W        W32841  11.480   8.590   9.760
32361W        W32842  11.465   8.466  10.682
32362W        W32843  11.355   7.383   8.841
32363W        W32844  13.123   7.730   9.402
32364W        W32845  12.771   7.915  10.565
32365W        W32846  13.126   8.064   7.743
32366W        W32847  14.309  10.457  10.497
32367W        W32848  13.276   7.538  10.536
32368W        W32849  14.295   9.839  10.658
32369W        W32850  13.725   8.006  10.254
32370W        W32851  13.918   9.078  10.928
32371W        W32852  11.658  10.654   8.914
32372W        W32853  12.316   8.371   7.900
32373W        W32854  11.885   7.655  10.564
32374W        W32855  13.937   8.139   8.245
32375W        W32856  14.304   8.621   8.190
32376W        W32857  12.047  10.838  10.661
32377W        W32858  11.973   7.374   7.896
32378W        W32859  14.444  10.157   7.376
32379W        W32860  11.351   9.360   9.078
32380W        W32861  13.268   7.947   7.308
32381W        W32862  14.441   7.473   9.778
32382W        W32863  12.886   8.685  10.332
32383W        W32864  12.979  10.024   8.035
32384W        W32865  13.379   9.318  10.775
32385W        W32866  13.053   7.295   9.084
32386W        W32867  11.665   8.198   9.147
32387W        W32868  11.219   9.398   9.921
32388W        W32869  13.078  10.591   8.627
32389W        W32870  14.272   8.188   9.499
32390W        W32871  12.909  10.535  10.266
32391W        W32872  14.252   9.594   7.471
32392W        W32873  12.687   9.077   8.532
32393W        W32874  14.539   7.588  10.273
32394W        W32875  12.688   9.423   9.867
32395W        W32876  12.905   8.309   9.312
32396W        W32877  13.757   8.607   8.150
32397W        W32878  14.044   8.340   7.792
32398W        W32879  13.853  10.380   8.181
32399W        W32880  13.687   9.983   8.977
32400W        W32881  13.583   9.062   7.955
32401W        W32882  13.016   9.272   8.941
32402W        W32883  13.897   9.060   9.008
32403W        W32884  11.272   8.075   9.432
32404W        W32885  14.050   9.127  10.259
32405W        W32886  14.401  10.745   9.405
32406W        W32887  12.331  10.189   8.807
32407W        W32888  13.338  10.722  10.131
32408W        W32889  13.332   8.052   9.895
32409W        W32890  12.539  10.760   9.956
32410W        W32891  14.236   7.714   8.422
32411W        W32892  14.027   9.033   9.723
32412W        W32893  11.010   8.354   9.761
32413W        W32894  13.870   8.149   8.779
32414W        W32895  14.281   8.300  10.556
32415W        W32896  13.166   9.999   8.774
32416W        W32897  12.422  10.590   8.387
32417W        W32898  11.537   7.770   7.645
32418W        W32899  12.641   7.424   9.455
32419W        W32900  11.669  10.544   7.303
32420W        W32901  12.043   9.010   8.054
32421W        W32902  12.697   9.639  10.367
32422W        W32903  12.527   7.997   8.357
32423W        W32904  13.883   7.594   8.785
32424W        W32905  13.015  10.524   9.453
32425W        W32906  14.181  10.284   9.540
32426W        W32907  11.875   7.787   8.309
32427W        W32908  12.397  10.084   9.269
32428W        W32909  11.880   8.015   7.334
32429W        W32910  12.681   8.624   9.728
32430W        W32911  13.529   7.490   9.598
32431W        W32912  10.949   9.333   9.483
32432W        W32913  12.653   9.151   7.641
32433W        W32914  11.921   7.466   7.411
32434W        W32915  12.659   8.547   8.462
32435W        W32916  13.629   7.523  10.161
32436W        W32917  12.217   9.535  10.270
32437W        W32918  13.021   9.317  10.487
32438W        W32919  13.638   9.347  10.380
32439W        W32920  12.922   7.487  10.885
32440W        W32921  12.144   8.103   9.278
32441W        W32922  11.570   8.059   8.676
32442W        W32923  11.356  10.771   8.352
32443W        W32924  12.688  10.101  10.477
32444W        W32925  11.723   9.586   7.836
32445W        W32926  13.403   8.971   9.057
32446W        W32927  13.683   8.770   9.456
32447W        W32928  13.358   9.818   7.522
32448W        W32929  13.030   7.839   8.850
32449W        W32930  14.509   8.117   8.118
32450W        W32931  11.003  10.706  10.149
32451W        W32932  11.420   9.932   9.681
32452W        W32933  10.987  10.778   7.913
32453W        W32934  12.886   8.048   9.719
32454W        W32935  12.249  10.071   7.568
32455W        W32936  14.154  10.453   7.754
32456W        W32937  13.129   9.106   7.768
32457W        W32938  11.972   8.297   8.285
32458W        W32939  12.804   8.207   7.337
32459W        W32940  13.388   9.772  10.515
32460W        W32941  13.741   7.678   8.132
32461W        W32942  11.071   7.526   7.580
32462W        W32943  12.357   9.845   9.870
32463W        W32944  12.156   9.761   8.962
32464W        W32945  11.898   9.713   7.360
32465W        W32946  11.139   9.954   8.128
32466W        W32947  11.643   9.024  10.570
32467W        W32948  13.056   7.726  10.112
32468W        W32949  12.251   7.494   8.393
32469W        W32950  13.310   7.571   7.898
32470W        W32951  11.255   7.503   9.475
32471W        W32952  11.303   8.466   8.845
32472W        W32953  13.992   7.574   9.251
32473W        W32954  13.985   7.760   9.681
32474W        W32955  14.381   8.963   7.366
32475W        W32956  11.673   7.721   9.185
32476W        W32957  12.787   8.293  10.125
32477W        W32958  10.935   7.983   7.603
32478W        W32959  11.721   9.372  10.164
32479W        W32960  13.079   8.770   9.343
32480W        W32961  12.946  10.849   7.639
32481W        W32962  11.092   9.356   7.336
32482W        W32963  11.827   9.767  10.462
32483W        W32964  11.348   8.934  10.093
32484W        W32965  12.339   9.039   9.887
32485W        W32966  14.107   7.398  10.149
32486W        W32967  14.505   9.008  10.140
32487W        W32968  14.493   9.208   7.826
32488W        W32969  13.356   9.540   7.925
32489W        W32970  13.830  10.840   7.620
32490W        W32971  13.007   8.830  10.762
32491W        W32972  11.337   9.797  10.802
32492W        W32973  14.543   7.719  10.754
32493W        W32974  14.261   8.647   9.375
32494W        W32975  12.569  10.777  10.852
32495W        W32976  12.424   7.406   7.579
32496W        W32977  13.963  10.005   7.522
32497W        W32978  11.732   8.098  10.408
32498W        W32979  12.166  10.092  10.270
32499W        W32980  14.292   8.083  10.068
32500W        W32981  13.503  10.742   8.036
32501W        W32982  13.742   9.361   9.403
32502W        W32983  11.992   7.777  10.070
32503W        W32984  12.461   8.846  10.827
32504W        W32985  11.964  10.025   8.021
32505W        W32986  13.719   9.523   8.285
32506W        W32987  11.487   8.149  10.009
32507W        W32988  12.816  10.211   8.473
32508W        W32989  14.566   8.771   8.654
32509W        W32990  12.788   7.404  10.373
32510W        W32991  13.568  10.109   9.452
32511W        W32992  13.871  10.453   9.160
32512W        W32993  13.090  10.255   7.588
32513W        W32994  11.100  10.147  10.430
32514W        W32995  11.843   8.139   9.668
32515W        W32996  11.813   7.487   8.778
32516W        W32997  13.434   8.329   9.470
32517W        W32998  12.232   9.500   7.670
32518W        W32999  14.230   9.442   9.169
32519W        W33000  11.557  10.200  10.592
32520W        W33001  13.944  10.882   8.389
32521W        W33002  12.043   7.902   8.834
32522W        W33003  11.812   9.395   8.924
32523W        W33004  12.125  10.806   9.674
32524W        W33005  14.192  10.902  10.706
32525W        W33006  13.351   9.090   9.639
32526W        W33007  11.200   8.888   7.554
32527W        W33008  14.334  10.546   8.251
32528W        W33009  14.171   7.870   7.870
32529W        W33010  12.310   7.389  10.273
32530W        W33011  14.016  10.191   8.731
32531W        W33012  14.045   8.747   8.636
32532W        W33013  12.162   8.420   8.852
32533W        W33014  12.407   8.682  10.176
32534W        W33015  13.518   9.835  10.039
32535W        W33016  12.168   8.289  10.151
32536W        W33017  12.147  10.755   8.767
32537W        W33018  11.464  10.714  10.401
32538W        W33019  11.576  10.075   7.531
32539W        W33020  14.093   9.833   8.341
32540W        W33021  11.697   8.625  10.227
32541W        W33022  14.470   8.555   7.708
32542W        W33023  12.215   9.612   8.179
32543W        W33024  13.314   8.994  10.260
32544W        W33025  13.205   8.622   9.804
32545W        W33026  11.765   8.994   9.833
32546W        W33027  13.975  10.882   9.662
32547W        W33028  13.766   7.516  10.656
32548W        W33029  11.430   7.666  10.243
32549W        W33030  11.769   8.689   9.296
32550W        W33031  12.138   8.503   7.418
32551W        W33032  10.941  10.262   9.963
32552W        W33033  12.526   8.971   9.406
32553W        W33034  12.349   7.996   7.511
32554W        W33035  11.484   8.812   8.292
32555W        W33036  11.255  10.664   9.729
32556W        W33037  14.050   8.890   7.837
32557W        W33038  14.145   7.806  10.523
32558W        W33039  13.581  10.015   8.486
32559W        W33040  11.179   8.939  10.663
32560W        W33041  13.665   9.878   7.970
32561W        W33042  12.567   8.936   8.055
32562W        W33043  13.754   7.740   7.578
32563W        W33044  13.819   8.347   9.764
32564W        W33045  11.528   8.940   8.971
32565W        W33046  11.822   9.879   8.620
32566W        W33047  13.585   8.499   8.585
32567W        W33048  12.608   7.878   9.281
32568W        W33049  14.570   9.789   9.792
32569W        W33050  14.488   7.776   9.353
32570W        W33051  11.536   9.793   8.265
32571W        W33052  11.451   7.410  10.818
32572W        W33053  12.570  10.263  10.920
32573W        W33054  14.325   9.231   8.710
32574W        W33055  13.679   9.408   7.590
32575W        W33056  12.974  10.929   9.802
32576W        W33057  13.831   9.651  10.839
32577W        W33058  12.646   7.361   8.119
32578W        W33059  13.359   8.230   8.978
32579W        W33060  11.045   9.817   9.310
32580W        W33061  12.298   7.779   7.951
32581W        W33062  12.102   9.263  10.800
32582W        W33063  13.096   8.244   8.514
32583W        W33064  11.455  10.259  10.071
32584W        W33065  12.046  10.242  10.794
32585W        W33066  11.897   8.039   7.808
32586W        W33067  13.414   8.181   8.133
32587W        W33068  13.372  10.289  10.370
32588W        W33069  12.057   8.881   8.969
32589W        W33070  11.712  10.579   9.834
32590W        W33071  14.457  10.696   7.435
32591W        W33072  11.751   9.279   8.361
32592W        W33073  12.122  10.286   9.756
32593W        W33074  12.500   7.705   8.797
32594W        W33075  11.111   9.689   7.727
32595W        W33076  12.630   8.640   7.597
32596W        W33077  11.276   9.189   8.616
32597W        W33078  12.566   7.831  10.080
32598W        W33079  14.238   7.540   7.507
32599W        W33080  14.331   9.286  10.606
32600W        W33081  12.985  10.543  10.758
32601W        W33082  14.543   9.637  10.280
32602W        W33083  13.951  10.435  10.891
32603W        W33084  11.690  10.891   9.369
32604W        W33085  13.079   8.780   8.756
32605W        W33086  12.846   7.392   8.646
32606W        W33087  11.905  10.376   8.483
32607W        W33088  12.404   8.117   9.708
32608W        W33089  12.104   7.486   9.177
32609W        W33090  11.167  10.308   7.725
32610W        W33091  12.983   9.672   8.443
32611W        W33092  11.858  10.467  10.322
32612W        W33093  11.335   9.290   8.018
32613W        W33094  11.220   7.833   9.017
32614W        W33095  11.020   7.652   8.094
32615W        W33096  13.684   8.858  10.021
32616W        W33097  14.078   9.916   9.241
32617W        W33098  12.739  10.400   9.072
32618W        W33099  12.151  10.504   7.983
32619W        W33100  13.433   7.407   7.413
32620W        W33101  11.233  10.667   9.154
32621W        W33102  13.430   8.425  10.789
32622W        W33103  11.413   7.955  10.788
32623W        W33104  11.144   8.555   8.121
32624W        W33105  11.835   8.544   7.846
32625W        W33106  13.598   8.871  10.663
32626W        W33107  11.941   9.152   9.372
32627W        W33108  13.415   7.438   8.492
32628W        W33109  12.546  10.869   8.995
32629W        W33110  13.344  10.480   9.043
32630W        W33111  13.363   9.460   8.637
32631W        W33112  12.825   7.685   7.708
32632W        W33113  14.506   7.313   8.430
32633W        W33114  12.194   8.948   7.593
32634W        W33115  14.360   8.285   8.583
32635W        W33116  13.052   9.455   7.460
32636W        W33117  13.988   9.655  10.208
32637W        W33118  13.642  10.356   7.675
32638W        W33119  12.257   8.031  10.581
32639W        W33120  12.077   8.615   9.822
32640W        W33121  14.169  10.110  10.099
32641W        W33122  13.269   8.060  10.476
32642W        W33123  11.113   8.531  10.253
32643W        W33124  12.873   9.008   9.979
32644W        W33125  11.230   9.766   8.636
32645W        W33126  11.377   9.063   9.526
32646W        W33127  13.694   9.349   9.876
32647W        W33128  13.466  10.729  10.687
32648W        W33129  13.362   8.468  10.240
32649W        W33130  13.639  10.522   8.645
32650W        W33131  12.641  10.242   9.968
32651W        W33132  12.126  10.597   9.237
32652W        W33133  13.931   9.768   9.656
32653W        W33134  12.981   9.840  10.793
32654W        W33135  11.586   9.793   9.132
32655W        W33136  13.932   9.552   8.777
32656W        W33137  13.573  10.618   9.528
32657W        W33138  11.551  10.347   9.398
32658W        W33139  12.572   8.399  10.608
32659W        W33140  13.023  10.565   8.119
32660W        W33141  12.331   9.820  10.757
32661W        W33142  12.457  10.058   8.134
32662W        W33143  11.678   8.798   7.393
32663W        W33144  11.017  10.884  14.292
32664W        W33145  11.393   9.777  13.815
32665W        W33146  14.098   9.507  11.585
32666W        W33147  14.228  10.592  13.612
32667W        W33148  12.146  10.583  11.138
32668W        W33149  12.229   8.735  12.121
32669W        W33150  11.744   8.583  12.285
32670W        W33151  12.735   9.398  11.719
32671W        W33152  12.410  10.490  14.074
32672W        W33153  11.059   8.051  14.037
32673W        W33154  11.821   7.331  13.839
32674W        W33155  13.515   7.719  12.726
32675W        W33156  13.164   8.590  11.296
32676W        W33157  13.734   8.024  14.387
32677W        W33158  11.100   7.816  13.512
32678W        W33159  12.721   9.825  11.265
32679W        W33160  11.153   8.608  12.958
32680W        W33161  12.046   8.499  14.195
32681W        W33162  14.505   8.358  12.694
32682W        W33163  14.269   9.401  13.553
32683W        W33164  12.577   8.734  12.580
32684W        W33165  13.123  10.073  12.949
32685W        W33166  11.623   9.507  13.181
32686W        W33167  10.982   9.035  12.752
32687W        W33168  12.018   9.007  13.944
32688W        W33169  14.289   8.790  14.198
32689W        W33170  11.905  10.234  12.643
32690W        W33171  13.026   9.923  13.777
32691W        W33172  12.246   8.563  13.002
32692W        W33173  12.538   9.347  12.645
32693W        W33174  13.535  10.120  14.493
32694W        W33175  12.614   9.440  14.503
32695W        W33176  12.595   9.156  13.981
32696W        W33177  11.004   8.547  14.503
32697W        W33178  13.836  10.082  14.102
32698W        W33179  11.417   7.664  12.100
32699W        W33180  11.944   9.922  13.099
32700W        W33181  14.407   9.705  12.389
32701W        W33182  13.820   8.105  12.956
32702W        W33183  14.105   8.058  11.051
32703W        W33184  14.570   8.859  13.357
32704W        W33185  12.537  10.566  13.110
32705W        W33186  14.311  10.032  11.548
32706W        W33187  11.440  10.818  11.302
32707W        W33188  11.630   7.618  13.404
32708W        W33189  14.253   8.636  13.679
32709W        W33190  13.658   9.058  12.138
32710W        W33191  13.624   8.746  11.165
32711W        W33192  12.832   9.890  13.305
32712W        W33193  12.638   8.220  12.504
32713W        W33194  13.238  10.307  13.498
32714W        W33195  14.109   9.098  11.920
32715W        W33196  13.011   7.756  11.936
32716W        W33197  11.668  10.450  11.619
32717W        W33198  11.039   7.949  12.218
32718W        W33199  13.825   8.556  12.692
32719W        W33200  11.283  10.173  12.607
32720W        W33201  12.624  10.523  11.477
32721W        W33202  14.016   8.549  10.941
32722W        W33203  11.039  10.307  13.105
32723W        W33204  11.830   9.879  13.585
32724W        W33205  12.203   9.239  12.204
32725W        W33206  12.225   7.644  13.297
32726W        W33207  14.454   7.406  12.594
32727W        W33208  11.328   8.311  11.241
32728W        W33209  11.390  10.267  12.035
32729W        W33210  12.521   9.750  12.283
32730W        W33211  13.853  10.609  13.997
32731W        W33212  12.779   8.251  11.681
32732W        W33213  14.162  10.649  12.453
32733W        W33214  13.839   8.502  14.051
32734W        W33215  14.552  10.158  12.185
32735W        W33216  13.179   9.450  13.669
32736W        W33217  10.945   9.001  11.875
32737W        W33218  12.056   9.416  13.448
32738W        W33219  13.260   8.680  11.826
32739W        W33220  13.137   9.170  11.930
32740W        W33221  11.480   8.590  13.404
32741W        W33222  11.465   8.466  14.326
32742W        W33223  11.355   7.383  12.485
32743W        W33224  13.123   7.730  13.046
32744W        W33225  12.771   7.915  14.209
32745W        W33226  13.126   8.064  11.387
32746W        W33227  14.309  10.457  14.141
32747W        W33228  13.276   7.538  14.180
32748W        W33229  14.295   9.839  14.302
32749W        W33230  13.725   8.006  13.898
32750W        W33231  13.525   7.944  12.168
32751W        W33232  13.918   9.078  14.572
32752W        W33233  11.658  10.654  12.558
32753W        W33234  12.316   8.371  11.544
32754W        W33235  11.885   7.655  14.208
32755W        W33236  13.937   8.139  11.889
32756W        W33237  14.304   8.621  11.834
32757W        W33238  12.047  10.838  14.305
32758W        W33239  11.973   7.374  11.540
32759W        W33240  14.294   7.908  12.575
32760W        W33241  14.444  10.157  11.020
32761W        W33242  11.351   9.360  12.722
32762W        W33243  13.268   7.947  10.952
32763W        W33244  14.402  10.279  12.672
32764W        W33245  14.441   7.473  13.422
32765W        W33246  12.886   8.685  13.976
32766W        W33247  12.979  10.024  11.679
32767W        W33248  13.379   9.318  14.419
32768W        W33249  13.053   7.295  12.728
32769W        W33250  11.665   8.198  12.791
32770W        W33251  11.219   9.398  13.565
32771W        W33252  13.078  10.591  12.271
32772W        W33253  14.272   8.188  13.143
32773W        W33254  12.909  10.535  13.910
32774W        W33255  14.252   9.594  11.115
32775W        W33256  12.687   9.077  12.176
32776W        W33257  14.539   7.588  13.917
32777W        W33258  12.688   9.423  13.511
32778W        W33259  12.905   8.309  12.956
32779W        W33260  13.757   8.607  11.794
32780W        W33261  14.044   8.340  11.436
32781W        W33262  13.853  10.380  11.825
32782W        W33263  13.687   9.983  12.621
32783W        W33264  13.583   9.062  11.599
32784W        W33265  13.016   9.272  12.585
32785W        W33266  13.897   9.060  12.652
32786W        W33267  11.272   8.075  13.076
32787W        W33268  14.050   9.127  13.903
32788W        W33269  14.401  10.745  13.049
32789W        W33270  12.331  10.189  12.451
32790W        W33271  13.338  10.722  13.775
32791W        W33272  13.332   8.052  13.539
32792W        W33273  12.539  10.760  13.600
32793W        W33274  14.236   7.714  12.066
32794W        W33275  14.027   9.033  13.367
32795W        W33276  11.010   8.354  13.405
32796W        W33277  13.870   8.149  12.423
32797W        W33278  14.281   8.300  14.200
32798W        W33279  13.166   9.999  12.418
32799W        W33280  12.422  10.590  12.031
32800W        W33281  11.537   7.770  11.289
32801W        W33282  12.641   7.424  13.099
32802W        W33283  11.669  10.544  10.947
32803W        W33284  12.043   9.010  11.698
32804W        W33285  12.697   9.639  14.011
32805W        W33286  12.527   7.997  12.001
32806W        W33287  13.883   7.594  12.429
32807W        W33288  13.603  10.876  12.757
32808W        W33289  13.015  10.524  13.097
32809W        W33290  12.411   9.561  13.058
32810W        W33291  14.181  10.284  13.184
32811W        W33292  11.875   7.787  11.953
32812W        W33293  12.397  10.084  12.913
32813W        W33294  11.880   8.015  10.978
32814W        W33295  12.681   8.624  13.372
32815W        W33296  13.529   7.490  13.242
32816W        W33297  10.949   9.333  13.127
32817W        W33298  12.653   9.151  11.285
32818W        W33299  11.921   7.466  11.055
32819W        W33300  12.659   8.547  12.106
32820W        W33301  13.629   7.523  13.805
32821W        W33302  12.217   9.535  13.914
32822W        W33303  13.021   9.317  14.131
32823W        W33304  13.638   9.347  14.024
32824W        W33305  12.922   7.487  14.529
32825W        W33306  12.144   8.103  12.922
32826W        W33307  11.570   8.059  12.320
32827W        W33308  11.356  10.771  11.996
32828W        W33309  12.688  10.101  14.121
32829W        W33310  11.723   9.586  11.480
32830W        W33311  13.403   8.971  12.701
32831W        W33312  13.683   8.770  13.100
32832W        W33313  12.888   9.444  13.034
32833W        W33314  13.358   9.818  11.166
32834W        W33315  13.030   7.839  12.494
32835W        W33316  14.509   8.117  11.762
32836W        W33317  11.003  10.706  13.793
32837W        W33318  11.420   9.932  13.325
32838W        W33319  10.987  10.778  11.557
32839W        W33320  12.886   8.048  13.363
32840W        W33321  12.249  10.071  11.212
32841W        W33322  13.129   9.106  11.412
32842W        W33323  11.972   8.297  11.929
32843W        W33324  12.804   8.207  10.981
32844W        W33325  13.388   9.772  14.159
32845W        W33326  13.741   7.678  11.776
32846W        W33327  11.071   7.526  11.224
32847W        W33328  12.357   9.845  13.514
32848W        W33329  12.156   9.761  12.606
32849W        W33330  11.898   9.713  11.004
32850W        W33331  11.139   9.954  11.772
32851W        W33332  11.643   9.024  14.214
32852W        W33333  12.347   7.584  14.400
32853W        W33334  13.056   7.726  13.756
32854W        W33335  12.251   7.494  12.037
32855W        W33336  13.310   7.571  11.542
32856W        W33337  11.255   7.503  13.119
32857W        W33338  11.303   8.466  12.489
32858W        W33339  13.992   7.574  12.895
32859W        W33340  11.414   8.072  11.709
32860W        W33341  13.985   7.760  13.325
32861W        W33342  14.381   8.963  11.010
32862W        W33343  11.673   7.721  12.829
32863W        W33344  12.787   8.293  13.769
32864W        W33345  10.935   7.983  11.247
32865W        W33346  11.721   9.372  13.808
32866W        W33347  13.079   8.770  12.987
32867W        W33348  12.946  10.849  11.283
32868W        W33349  11.827   9.767  14.106
32869W        W33350  11.348   8.934  13.737
32870W        W33351  12.339   9.039  13.531
32871W        W33352  14.107   7.398  13.793
32872W        W33353  14.505   9.008  13.784
32873W        W33354  14.493   9.208  11.470
32874W        W33355  13.356   9.540  11.569
32875W        W33356  13.830  10.840  11.264
32876W        W33357  13.007   8.830  14.406
32877W        W33358  11.337   9.797  14.446
32878W        W33359  14.543   7.719  14.398
32879W        W33360  14.261   8.647  13.019
32880W        W33361  12.569  10.777  14.496
32881W        W33362  12.424   7.406  11.223
32882W        W33363  13.963  10.005  11.166
32883W        W33364  11.732   8.098  14.052
32884W        W33365  12.166  10.092  13.914
32885W        W33366  14.292   8.083  13.712
32886W        W33367  13.503  10.742  11.680
32887W        W33368  13.742   9.361  13.047
32888W        W33369  11.992   7.777  13.714
32889W        W33370  12.461   8.846  14.471
32890W        W33371  11.964  10.025  11.665
32891W        W33372  13.719   9.523  11.929
32892W        W33373  11.487   8.149  13.653
32893W        W33374  12.816  10.211  12.117
32894W        W33375  14.566   8.771  12.298
32895W        W33376  12.788   7.404  14.017
32896W        W33377  13.568  10.109  13.096
32897W        W33378  13.871  10.453  12.804
32898W        W33379  13.090  10.255  11.232
32899W        W33380  11.100  10.147  14.074
32900W        W33381  11.843   8.139  13.312
32901W        W33382  11.813   7.487  12.422
32902W        W33383  13.434   8.329  13.114
32903W        W33384  12.232   9.500  11.314
32904W        W33385  14.230   9.442  12.813
32905W        W33386  11.557  10.200  14.236
32906W        W33387  13.944  10.882  12.033
32907W        W33388  12.043   7.902  12.478
32908W        W33389  11.812   9.395  12.568
32909W        W33390  12.125  10.806  13.318
32910W        W33391  14.192  10.902  14.350
32911W        W33392  13.351   9.090  13.283
32912W        W33393  11.200   8.888  11.198
32913W        W33394  14.334  10.546  11.895
32914W        W33395  14.171   7.870  11.514
32915W        W33396  12.310   7.389  13.917
32916W        W33397  14.016  10.191  12.375
32917W        W33398  14.045   8.747  12.280
32918W        W33399  12.162   8.420  12.496
32919W        W33400  12.407   8.682  13.820
32920W        W33401  13.518   9.835  13.683
32921W        W33402  12.147  10.755  12.411
32922W        W33403  11.464  10.714  14.045
32923W        W33404  11.576  10.075  11.175
32924W        W33405  14.093   9.833  11.985
32925W        W33406  11.697   8.625  13.871
32926W        W33407  14.470   8.555  11.352
32927W        W33408  12.215   9.612  11.823
32928W        W33409  13.314   8.994  13.904
32929W        W33410  13.205   8.622  13.448
32930W        W33411  11.765   8.994  13.477
32931W        W33412  13.975  10.882  13.306
32932W        W33413  13.766   7.516  14.300
32933W        W33414  11.430   7.666  13.887
32934W        W33415  11.769   8.689  12.940
32935W        W33416  12.138   8.503  11.062
32936W        W33417  10.941  10.262  13.607
32937W        W33418  12.526   8.971  13.050
32938W        W33419  12.349   7.996  11.155
32939W        W33420  11.484   8.812  11.936
32940W        W33421  11.255  10.664  13.373
32941W        W33422  14.050   8.890  11.481
32942W        W33423  14.145   7.806  14.167
32943W        W33424  13.581  10.015  12.130
32944W        W33425  11.179   8.939  14.307
32945W        W33426  14.145   7.403  11.603
32946W        W33427  13.665   9.878  11.614
32947W        W33428  12.567   8.936  11.699
32948W        W33429  13.754   7.740  11.222
32949W        W33430  13.819   8.347  13.408
32950W        W33431  11.528   8.940  12.615
32951W        W33432  11.822   9.879  12.264
32952W        W33433  13.585   8.499  12.229
32953W        W33434  12.608   7.878  12.925
32954W        W33435  14.570   9.789  13.436
32955W        W33436  14.488   7.776  12.997
32956W        W33437  11.027  10.606  12.373
32957W        W33438  11.536   9.793  11.909
32958W        W33439  11.451   7.410  14.462
32959W        W33440  12.570  10.263  14.564
32960W        W33441  14.325   9.231  12.354
32961W        W33442  13.679   9.408  11.234
32962W        W33443  12.974  10.929  13.446
32963W        W33444  13.831   9.651  14.483
32964W        W33445  12.646   7.361  11.763
32965W        W33446  13.359   8.230  12.622
32966W        W33447  11.045   9.817  12.954
32967W        W33448  12.298   7.779  11.595
32968W        W33449  12.102   9.263  14.444
32969W        W33450  13.096   8.244  12.158
32970W        W33451  11.455  10.259  13.715
32971W        W33452  12.046  10.242  14.438
32972W        W33453  11.897   8.039  11.452
32973W        W33454  13.414   8.181  11.777
32974W        W33455  13.372  10.289  14.014
32975W        W33456  12.057   8.881  12.613
32976W        W33457  11.712  10.579  13.478
32977W        W33458  14.457  10.696  11.079
32978W        W33459  11.320   9.368  14.075
32979W        W33460  13.315   9.630  12.763
32980W        W33461  11.751   9.279  12.005
32981W        W33462  12.122  10.286  13.400
32982W        W33463  12.500   7.705  12.441
32983W        W33464  11.111   9.689  11.371
32984W        W33465  12.630   8.640  11.241
32985W        W33466  11.276   9.189  12.260
32986W        W33467  12.566   7.831  13.724
32987W        W33468  14.238   7.540  11.151
32988W        W33469  14.331   9.286  14.250
32989W        W33470  12.985  10.543  14.402
32990W        W33471  14.543   9.637  13.924
32991W        W33472  13.951  10.435  14.535
32992W        W33473  11.690  10.891  13.013
32993W        W33474  14.549   9.513  11.887
32994W        W33475  13.079   8.780  12.400
32995W        W33476  12.846   7.392  12.290
32996W        W33477  11.905  10.376  12.127
32997W        W33478  12.404   8.117  13.352
32998W        W33479  12.104   7.486  12.821
32999W        W33480  11.167  10.308  11.369
33000W        W33481  12.983   9.672  12.087
33001W        W33482  11.858  10.467  13.966
33002W        W33483  11.335   9.290  11.662
33003W        W33484  11.220   7.833  12.661
33004W        W33485  12.768   9.798  12.718
33005W        W33486  11.020   7.652  11.738
33006W        W33487  13.684   8.858  13.665
33007W        W33488  13.561   8.244  11.237
33008W        W33489  14.078   9.916  12.885
33009W        W33490  12.739  10.400  12.716
33010W        W33491  12.151  10.504  11.627
33011W        W33492  13.433   7.407  11.057
33012W        W33493  11.233  10.667  12.798
33013W        W33494  13.430   8.425  14.433
33014W        W33495  11.413   7.955  14.432
33015W        W33496  11.144   8.555  11.765
33016W        W33497  11.835   8.544  11.490
33017W        W33498  13.598   8.871  14.307
33018W        W33499  11.941   9.152  13.016
33019W        W33500  13.415   7.438  12.136
33020W        W33501  12.546  10.869  12.639
33021W        W33502  13.760  10.331  13.576
33022W        W33503  13.344  10.480  12.687
33023W        W33504  13.363   9.460  12.281
33024W        W33505  12.825   7.685  11.352
33025W        W33506  14.506   7.313  12.074
33026W        W33507  12.194   8.948  11.237
33027W        W33508  14.360   8.285  12.227
33028W        W33509  13.052   9.455  11.104
33029W        W33510  13.988   9.655  13.852
33030W        W33511  13.642  10.356  11.319
33031W        W33512  12.257   8.031  14.225
33032W        W33513  12.077   8.615  13.466
33033W        W33514  14.169  10.110  13.743
33034W        W33515  13.269   8.060  14.120
33035W        W33516  11.113   8.531  13.897
33036W        W33517  12.873   9.008  13.623
33037W        W33518  11.230   9.766  12.280
33038W        W33519  11.377   9.063  13.170
33039W        W33520  13.694   9.349  13.520
33040W        W33521  13.466  10.729  14.331
33041W        W33522  13.362   8.468  13.884
33042W        W33523  13.639  10.522  12.289
33043W        W33524  12.641  10.242  13.612
33044W        W33525  12.126  10.597  12.881
33045W        W33526  13.931   9.768  13.300
33046W        W33527  12.981   9.840  14.437
33047W        W33528  11.586   9.793  12.776
33048W        W33529  13.932   9.552  12.421
33049W        W33530  13.573  10.618  13.172
33050W        W33531  11.551  10.347  13.042
33051W        W33532  12.572   8.399  14.252
33052W        W33533  13.023  10.565  11.763
33053W        W33534  12.331   9.820  14.401
33054W        W33535  12.457  10.058  11.778
33055W        W33536  11.678   8.798  11.037
33056W        W33537  11.393   9.777  17.459
33057W        W33538  14.098   9.507  15.229
33058W        W33539  12.146  10.583  14.782
33059W        W33540  12.229   8.735  15.765
33060W        W33541  11.744   8.583  15.929
33061W        W33542  12.735   9.398  15.363
33062W        W33543  12.410  10.490  17.718
33063W        W33544  11.059   8.051  17.681
33064W        W33545  11.821   7.331  17.483
33065W        W33546  13.515   7.719  16.370
33066W        W33547  13.164   8.590  14.940
33067W        W33548  11.100   7.816  17.156
33068W        W33549  12.721   9.825  14.909
33069W        W33550  11.153   8.608  16.602
33070W        W33551  14.505   8.358  16.338
33071W        W33552  14.269   9.401  17.197
33072W        W33553  12.577   8.734  16.224
33073W        W33554  13.123  10.073  16.593
33074W        W33555  11.623   9.507  16.825
33075W        W33556  10.982   9.035  16.396
33076W        W33557  12.018   9.007  17.588
33077W        W33558  11.905  10.234  16.287
33078W        W33559  13.026   9.923  17.421
33079W        W33560  12.246   8.563  16.646
33080W        W33561  12.538   9.347  16.289
33081W        W33562  12.595   9.156  17.625
33082W        W33563  13.836  10.082  17.746
33083W        W33564  11.417   7.664  15.744
33084W        W33565  14.407   9.705  16.033
33085W        W33566  13.820   8.105  16.600
33086W        W33567  14.105   8.058  14.695
33087W        W33568  14.570   8.859  17.001
33088W        W33569  12.537  10.566  16.754
33089W        W33570  14.311  10.032  15.192
33090W        W33571  11.440  10.818  14.946
33091W        W33572  11.833  10.864  15.622
33092W        W33573  11.630   7.618  17.048
33093W        W33574  14.253   8.636  17.323
33094W        W33575  13.658   9.058  15.782
33095W        W33576  12.832   9.890  16.949
33096W        W33577  12.638   8.220  16.148
33097W        W33578  13.238  10.307  17.142
33098W        W33579  14.109   9.098  15.564
33099W        W33580  13.011   7.756  15.580
33100W        W33581  11.668  10.450  15.263
33101W        W33582  11.039   7.949  15.862
33102W        W33583  13.825   8.556  16.336
33103W        W33584  11.283  10.173  16.251
33104W        W33585  12.624  10.523  15.121
33105W        W33586  14.016   8.549  14.585
33106W        W33587  11.039  10.307  16.749
33107W        W33588  11.830   9.879  17.229
33108W        W33589  12.203   9.239  15.848
33109W        W33590  12.225   7.644  16.941
33110W        W33591  14.454   7.406  16.238
33111W        W33592  11.673   9.278  14.706
33112W        W33593  11.328   8.311  14.885
33113W        W33594  11.390  10.267  15.679
33114W        W33595  12.521   9.750  15.927
33115W        W33596  13.853  10.609  17.641
33116W        W33597  14.162  10.649  16.097
33117W        W33598  14.552  10.158  15.829
33118W        W33599  13.179   9.450  17.313
33119W        W33600  10.945   9.001  15.519
33120W        W33601  12.056   9.416  17.092
33121W        W33602  13.260   8.680  15.470
33122W        W33603  11.480   8.590  17.048
33123W        W33604  11.355   7.383  16.129
33124W        W33605  13.123   7.730  16.690
33125W        W33606  13.126   8.064  15.031
33126W        W33607  14.309  10.457  17.785
33127W        W33608  13.276   7.538  17.824
33128W        W33609  13.725   8.006  17.542
33129W        W33610  13.525   7.944  15.812
33130W        W33611  11.658  10.654  16.202
33131W        W33612  12.316   8.371  15.188
33132W        W33613  13.937   8.139  15.533
33133W        W33614  14.304   8.621  15.478
33134W        W33615  11.973   7.374  15.184
33135W        W33616  14.294   7.908  16.219
33136W        W33617  14.444  10.157  14.664
33137W        W33618  11.351   9.360  16.366
33138W        W33619  13.268   7.947  14.596
33139W        W33620  14.402  10.279  16.316
33140W        W33621  14.441   7.473  17.066
33141W        W33622  12.886   8.685  17.620
33142W        W33623  12.979  10.024  15.323
33143W        W33624  13.053   7.295  16.372
33144W        W33625  11.665   8.198  16.435
33145W        W33626  11.219   9.398  17.209
33146W        W33627  13.078  10.591  15.915
33147W        W33628  12.909  10.535  17.554
33148W        W33629  14.252   9.594  14.759
33149W        W33630  12.687   9.077  15.820
33150W        W33631  14.539   7.588  17.561
33151W        W33632  12.688   9.423  17.155
33152W        W33633  12.905   8.309  16.600
33153W        W33634  13.757   8.607  15.438
33154W        W33635  14.044   8.340  15.080
33155W        W33636  13.853  10.380  15.469
33156W        W33637  13.687   9.983  16.265
33157W        W33638  13.583   9.062  15.243
33158W        W33639  13.016   9.272  16.229
33159W        W33640  13.897   9.060  16.296
33160W        W33641  11.272   8.075  16.720
33161W        W33642  14.050   9.127  17.547
33162W        W33643  14.401  10.745  16.693
33163W        W33644  12.331  10.189  16.095
33164W        W33645  13.338  10.722  17.419
33165W        W33646  13.332   8.052  17.183
33166W        W33647  12.539  10.760  17.244
33167W        W33648  14.236   7.714  15.710
33168W        W33649  14.027   9.033  17.011
33169W        W33650  11.010   8.354  17.049
33170W        W33651  13.870   8.149  16.067
33171W        W33652  13.166   9.999  16.062
33172W        W33653  12.422  10.590  15.675
33173W        W33654  11.537   7.770  14.933
33174W        W33655  12.641   7.424  16.743
33175W        W33656  11.669  10.544  14.591
33176W        W33657  12.043   9.010  15.342
33177W        W33658  12.697   9.639  17.655
33178W        W33659  12.527   7.997  15.645
33179W        W33660  13.883   7.594  16.073
33180W        W33661  13.603  10.876  16.401
33181W        W33662  13.015  10.524  16.741
33182W        W33663  12.411   9.561  16.702
33183W        W33664  14.181  10.284  16.828
33184W        W33665  11.875   7.787  15.597
33185W        W33666  12.397  10.084  16.557
33186W        W33667  11.880   8.015  14.622
33187W        W33668  12.681   8.624  17.016
33188W        W33669  13.529   7.490  16.886
33189W        W33670  10.949   9.333  16.771
33190W        W33671  12.653   9.151  14.929
33191W        W33672  11.921   7.466  14.699
33192W        W33673  12.659   8.547  15.750
33193W        W33674  13.629   7.523  17.449
33194W        W33675  12.217   9.535  17.558
33195W        W33676  13.638   9.347  17.668
33196W        W33677  12.144   8.103  16.566
33197W        W33678  11.570   8.059  15.964
33198W        W33679  12.688  10.101  17.765
33199W        W33680  11.723   9.586  15.124
33200W        W33681  13.403   8.971  16.345
33201W        W33682  13.683   8.770  16.744
33202W        W33683  12.888   9.444  16.678
33203W        W33684  13.358   9.818  14.810
33204W        W33685  13.030   7.839  16.138
33205W        W33686  14.509   8.117  15.406
33206W        W33687  11.003  10.706  17.437
33207W        W33688  11.420   9.932  16.969
33208W        W33689  10.987  10.778  15.201
33209W        W33690  12.886   8.048  17.007
33210W        W33691  12.249  10.071  14.856
33211W        W33692  14.154  10.453  15.042
33212W        W33693  13.129   9.106  15.056
33213W        W33694  11.972   8.297  15.573
33214W        W33695  12.804   8.207  14.625
33215W        W33696  13.741   7.678  15.420
33216W        W33697  11.071   7.526  14.868
33217W        W33698  12.357   9.845  17.158
33218W        W33699  12.156   9.761  16.250
33219W        W33700  11.898   9.713  14.648
33220W        W33701  11.139   9.954  15.416
33221W        W33702  13.056   7.726  17.400
33222W        W33703  12.251   7.494  15.681
33223W        W33704  13.310   7.571  15.186
33224W        W33705  11.255   7.503  16.763
33225W        W33706  11.303   8.466  16.133
33226W        W33707  13.992   7.574  16.539
33227W        W33708  11.414   8.072  15.353
33228W        W33709  13.985   7.760  16.969
33229W        W33710  14.381   8.963  14.654
33230W        W33711  11.673   7.721  16.473
33231W        W33712  12.787   8.293  17.413
33232W        W33713  10.935   7.983  14.891
33233W        W33714  11.721   9.372  17.452
33234W        W33715  13.079   8.770  16.631
33235W        W33716  12.946  10.849  14.927
33236W        W33717  11.092   9.356  14.624
33237W        W33718  11.348   8.934  17.381
33238W        W33719  12.339   9.039  17.175
33239W        W33720  14.107   7.398  17.437
33240W        W33721  14.505   9.008  17.428
33241W        W33722  14.493   9.208  15.114
33242W        W33723  13.356   9.540  15.213
33243W        W33724  13.830  10.840  14.908
33244W        W33725  14.261   8.647  16.663
33245W        W33726  12.424   7.406  14.867
33246W        W33727  13.963  10.005  14.810
33247W        W33728  12.166  10.092  17.558
33248W        W33729  14.292   8.083  17.356
33249W        W33730  13.503  10.742  15.324
33250W        W33731  13.742   9.361  16.691
33251W        W33732  11.992   7.777  17.358
33252W        W33733  11.964  10.025  15.309
33253W        W33734  13.719   9.523  15.573
33254W        W33735  11.487   8.149  17.297
33255W        W33736  12.816  10.211  15.761
33256W        W33737  14.566   8.771  15.942
33257W        W33738  12.788   7.404  17.661
33258W        W33739  13.568  10.109  16.740
33259W        W33740  13.871  10.453  16.448
33260W        W33741  13.090  10.255  14.876
33261W        W33742  11.100  10.147  17.718
33262W        W33743  11.843   8.139  16.956
33263W        W33744  11.813   7.487  16.066
33264W        W33745  13.434   8.329  16.758
33265W        W33746  12.232   9.500  14.958
33266W        W33747  14.230   9.442  16.457
33267W        W33748  13.944  10.882  15.677
33268W        W33749  12.043   7.902  16.122
33269W        W33750  11.812   9.395  16.212
33270W        W33751  12.125  10.806  16.962
33271W        W33752  13.351   9.090  16.927
33272W        W33753  11.200   8.888  14.842
33273W        W33754  14.334  10.546  15.539
33274W        W33755  14.171   7.870  15.158
33275W        W33756  12.310   7.389  17.561
33276W        W33757  14.016  10.191  16.019
33277W        W33758  14.045   8.747  15.924
33278W        W33759  12.162   8.420  16.140
33279W        W33760  12.407   8.682  17.464
33280W        W33761  12.168   8.289  17.439
33281W        W33762  12.147  10.755  16.055
33282W        W33763  11.576  10.075  14.819
33283W        W33764  14.093   9.833  15.629
33284W        W33765  11.697   8.625  17.515
33285W        W33766  14.470   8.555  14.996
33286W        W33767  12.215   9.612  15.467
33287W        W33768  13.314   8.994  17.548
33288W        W33769  13.205   8.622  17.092
33289W        W33770  11.765   8.994  17.121
33290W        W33771  13.975  10.882  16.950
33291W        W33772  11.430   7.666  17.531
33292W        W33773  11.769   8.689  16.584
33293W        W33774  12.138   8.503  14.706
33294W        W33775  10.941  10.262  17.251
33295W        W33776  12.526   8.971  16.694
33296W        W33777  12.349   7.996  14.799
33297W        W33778  11.484   8.812  15.580
33298W        W33779  11.255  10.664  17.017
33299W        W33780  14.050   8.890  15.125
33300W        W33781  13.581  10.015  15.774
33301W        W33782  14.145   7.403  15.247
33302W        W33783  13.665   9.878  15.258
33303W        W33784  12.567   8.936  15.343
33304W        W33785  13.754   7.740  14.866
33305W        W33786  13.819   8.347  17.052
33306W        W33787  11.528   8.940  16.259
33307W        W33788  11.822   9.879  15.908
33308W        W33789  13.585   8.499  15.873
33309W        W33790  12.608   7.878  16.569
33310W        W33791  14.570   9.789  17.080
33311W        W33792  14.488   7.776  16.641
33312W        W33793  11.027  10.606  16.017
33313W        W33794  11.536   9.793  15.553
33314W        W33795  14.325   9.231  15.998
33315W        W33796  13.679   9.408  14.878
33316W        W33797  12.974  10.929  17.090
33317W        W33798  12.646   7.361  15.407
33318W        W33799  13.359   8.230  16.266
33319W        W33800  11.045   9.817  16.598
33320W        W33801  12.298   7.779  15.239
33321W        W33802  13.096   8.244  15.802
33322W        W33803  13.301   9.654  16.924
33323W        W33804  11.455  10.259  17.359
33324W        W33805  11.897   8.039  15.096
33325W        W33806  13.414   8.181  15.421
33326W        W33807  13.372  10.289  17.658
33327W        W33808  12.057   8.881  16.257
33328W        W33809  11.712  10.579  17.122
33329W        W33810  14.457  10.696  14.723
33330W        W33811  13.315   9.630  16.407
33331W        W33812  11.751   9.279  15.649
33332W        W33813  12.122  10.286  17.044
33333W        W33814  12.500   7.705  16.085
33334W        W33815  11.111   9.689  15.015
33335W        W33816  12.630   8.640  14.885
33336W        W33817  11.276   9.189  15.904
33337W        W33818  12.566   7.831  17.368
33338W        W33819  14.238   7.540  14.795
33339W        W33820  14.543   9.637  17.568
33340W        W33821  11.690  10.891  16.657
33341W        W33822  14.549   9.513  15.531
33342W        W33823  13.079   8.780  16.044
33343W        W33824  12.846   7.392  15.934
33344W        W33825  11.905  10.376  15.771
33345W        W33826  12.404   8.117  16.996
33346W        W33827  12.104   7.486  16.465
33347W        W33828  11.167  10.308  15.013
33348W        W33829  12.983   9.672  15.731
33349W        W33830  11.858  10.467  17.610
33350W        W33831  11.335   9.290  15.306
33351W        W33832  11.220   7.833  16.305
33352W        W33833  12.768   9.798  16.362
33353W        W33834  11.020   7.652  15.382
33354W        W33835  13.684   8.858  17.309
33355W        W33836  13.561   8.244  14.881
33356W        W33837  14.078   9.916  16.529
33357W        W33838  12.739  10.400  16.360
33358W        W33839  12.151  10.504  15.271
33359W        W33840  13.433   7.407  14.701
33360W        W33841  11.233  10.667  16.442
33361W        W33842  11.144   8.555  15.409
33362W        W33843  11.835   8.544  15.134
33363W        W33844  11.941   9.152  16.660
33364W        W33845  13.415   7.438  15.780
33365W        W33846  12.546  10.869  16.283
33366W        W33847  13.760  10.331  17.220
33367W        W33848  13.344  10.480  16.331
33368W        W33849  13.363   9.460  15.925
33369W        W33850  12.825   7.685  14.996
33370W        W33851  14.506   7.313  15.718
33371W        W33852  12.194   8.948  14.881
33372W        W33853  14.360   8.285  15.871
33373W        W33854  13.052   9.455  14.748
33374W        W33855  13.988   9.655  17.496
33375W        W33856  13.642  10.356  14.963
33376W        W33857  12.077   8.615  17.110
33377W        W33858  14.169  10.110  17.387
33378W        W33859  11.113   8.531  17.541
33379W        W33860  12.873   9.008  17.267
33380W        W33861  11.230   9.766  15.924
33381W        W33862  11.377   9.063  16.814
33382W        W33863  13.694   9.349  17.164
33383W        W33864  13.466  10.729  17.975
33384W        W33865  13.362   8.468  17.528
33385W        W33866  13.639  10.522  15.933
33386W        W33867  12.641  10.242  17.256
33387W        W33868  13.931   9.768  16.944
33388W        W33869  11.586   9.793  16.420
33389W        W33870  13.932   9.552  16.065
33390W        W33871  13.573  10.618  16.816
33391W        W33872  11.551  10.347  16.686
33392W        W33873  13.023  10.565  15.407
33393W        W33874  12.457  10.058  15.422
33394W        W33875  11.678   8.798  14.681
33395W        W33876  11.017  14.528   3.359
33396W        W33877  11.393  13.421   2.882
33397W        W33878  14.098  13.151   0.652
33398W        W33879  14.228  14.236   2.679
33399W        W33880  12.146  14.227   0.205
33400W        W33881  12.229  12.379   1.188
33401W        W33882  11.744  12.227   1.352
33402W        W33883  12.735  13.042   0.786
33403W        W33884  12.410  14.134   3.141
33404W        W33885  11.059  11.695   3.104
33405W        W33886  11.821  10.975   2.906
33406W        W33887  13.515  11.363   1.793
33407W        W33888  13.164  12.234   0.363
33408W        W33889  13.734  11.668   3.454
33409W        W33890  11.100  11.460   2.579
33410W        W33891  11.199  14.079   3.600
33411W        W33892  12.721  13.469   0.332
33412W        W33893  11.153  12.252   2.025
33413W        W33894  12.046  12.143   3.262
33414W        W33895  14.505  12.002   1.761
33415W        W33896  14.269  13.045   2.620
33416W        W33897  12.577  12.378   1.647
33417W        W33898  13.123  13.717   2.016
33418W        W33899  11.623  13.151   2.248
33419W        W33900  10.982  12.679   1.819
33420W        W33901  12.018  12.651   3.011
33421W        W33902  14.289  12.434   3.265
33422W        W33903  11.905  13.878   1.710
33423W        W33904  13.026  13.567   2.844
33424W        W33905  12.246  12.207   2.069
33425W        W33906  12.538  12.991   1.712
33426W        W33907  13.535  13.764   3.560
33427W        W33908  12.614  13.084   3.570
33428W        W33909  12.595  12.800   3.048
33429W        W33910  13.836  13.726   3.169
33430W        W33911  11.417  11.308   1.167
33431W        W33912  11.944  13.566   2.166
33432W        W33913  14.407  13.349   1.456
33433W        W33914  13.820  11.749   2.023
33434W        W33915  14.105  11.702   0.118
33435W        W33916  14.570  12.503   2.424
33436W        W33917  12.537  14.210   2.177
33437W        W33918  14.311  13.676   0.615
33438W        W33919  11.440  14.462   0.369
33439W        W33920  11.833  14.508   1.045
33440W        W33921  11.630  11.262   2.471
33441W        W33922  14.253  12.280   2.746
33442W        W33923  13.658  12.702   1.205
33443W        W33924  13.624  12.390   0.232
33444W        W33925  12.832  13.534   2.372
33445W        W33926  12.638  11.864   1.571
33446W        W33927  13.238  13.951   2.565
33447W        W33928  14.109  12.742   0.987
33448W        W33929  13.011  11.400   1.003
33449W        W33930  11.668  14.094   0.686
33450W        W33931  11.039  11.593   1.285
33451W        W33932  13.825  12.200   1.759
33452W        W33933  11.283  13.817   1.674
33453W        W33934  12.624  14.167   0.544
33454W        W33935  14.016  12.193   0.008
33455W        W33936  11.039  13.951   2.172
33456W        W33937  11.830  13.523   2.652
33457W        W33938  12.203  12.883   1.271
33458W        W33939  12.225  11.288   2.364
33459W        W33940  14.454  11.050   1.661
33460W        W33941  11.673  12.922   0.129
33461W        W33942  11.328  11.955   0.308
33462W        W33943  11.390  13.911   1.102
33463W        W33944  12.521  13.394   1.350
33464W        W33945  13.853  14.253   3.064
33465W        W33946  12.779  11.895   0.748
33466W        W33947  14.162  14.293   1.520
33467W        W33948  13.839  12.146   3.118
33468W        W33949  14.552  13.802   1.252
33469W        W33950  13.179  13.094   2.736
33470W        W33951  10.945  12.645   0.942
33471W        W33952  12.056  13.060   2.515
33472W        W33953  13.260  12.324   0.893
33473W        W33954  13.137  12.814   0.997
33474W        W33955  11.480  12.234   2.471
33475W        W33956  11.465  12.110   3.393
33476W        W33957  11.355  11.027   1.552
33477W        W33958  13.123  11.374   2.113
33478W        W33959  12.771  11.559   3.276
33479W        W33960  13.126  11.708   0.454
33480W        W33961  14.309  14.101   3.208
33481W        W33962  13.276  11.182   3.247
33482W        W33963  14.295  13.483   3.369
33483W        W33964  13.725  11.650   2.965
33484W        W33965  13.525  11.588   1.235
33485W        W33966  13.918  12.722   3.639
33486W        W33967  11.658  14.298   1.625
33487W        W33968  12.316  12.015   0.611
33488W        W33969  11.885  11.299   3.275
33489W        W33970  13.937  11.783   0.956
33490W        W33971  14.304  12.265   0.901
33491W        W33972  12.047  14.482   3.372
33492W        W33973  11.973  11.018   0.607
33493W        W33974  14.294  11.552   1.642
33494W        W33975  14.444  13.801   0.087
33495W        W33976  11.351  13.004   1.789
33496W        W33977  13.268  11.591   0.019
33497W        W33978  14.402  13.923   1.739
33498W        W33979  14.441  11.117   2.489
33499W        W33980  12.886  12.329   3.043
33500W        W33981  12.979  13.668   0.746
33501W        W33982  13.379  12.962   3.486
33502W        W33983  13.053  10.939   1.795
33503W        W33984  11.665  11.842   1.858
33504W        W33985  11.219  13.042   2.632
33505W        W33986  13.078  14.235   1.338
33506W        W33987  14.272  11.832   2.210
33507W        W33988  12.909  14.179   2.977
33508W        W33989  14.252  13.238   0.182
33509W        W33990  14.539  11.232   2.984
33510W        W33991  12.688  13.067   2.578
33511W        W33992  12.905  11.953   2.023
33512W        W33993  13.757  12.251   0.861
33513W        W33994  14.044  11.984   0.503
33514W        W33995  13.853  14.024   0.892
33515W        W33996  13.687  13.627   1.688
33516W        W33997  13.583  12.706   0.666
33517W        W33998  13.016  12.916   1.652
33518W        W33999  13.897  12.704   1.719
33519W        W34000  11.272  11.719   2.143
33520W        W34001  14.050  12.771   2.970
33521W        W34002  14.401  14.389   2.116
33522W        W34003  12.331  13.833   1.518
33523W        W34004  13.338  14.366   2.842
33524W        W34005  13.332  11.696   2.606
33525W        W34006  12.539  14.404   2.667
33526W        W34007  14.236  11.358   1.133
33527W        W34008  14.027  12.677   2.434
33528W        W34009  11.010  11.998   2.472
33529W        W34010  13.870  11.793   1.490
33530W        W34011  14.281  11.944   3.267
33531W        W34012  13.166  13.643   1.485
33532W        W34013  12.422  14.234   1.098
33533W        W34014  11.537  11.414   0.356
33534W        W34015  12.641  11.068   2.166
33535W        W34016  11.669  14.188   0.014
33536W        W34017  12.043  12.654   0.765
33537W        W34018  12.697  13.283   3.078
33538W        W34019  12.527  11.641   1.068
33539W        W34020  13.883  11.238   1.496
33540W        W34021  13.603  14.520   1.824
33541W        W34022  13.015  14.168   2.164
33542W        W34023  12.411  13.205   2.125
33543W        W34024  14.181  13.928   2.251
33544W        W34025  11.875  11.431   1.020
33545W        W34026  12.397  13.728   1.980
33546W        W34027  11.880  11.659   0.045
33547W        W34028  12.681  12.268   2.439
33548W        W34029  13.529  11.134   2.309
33549W        W34030  10.949  12.977   2.194
33550W        W34031  12.653  12.795   0.352
33551W        W34032  11.921  11.110   0.122
33552W        W34033  12.659  12.191   1.173
33553W        W34034  13.629  11.167   2.872
33554W        W34035  12.217  13.179   2.981
33555W        W34036  13.021  12.961   3.198
33556W        W34037  13.638  12.991   3.091
33557W        W34038  12.922  11.131   3.596
33558W        W34039  12.144  11.747   1.989
33559W        W34040  11.570  11.703   1.387
33560W        W34041  11.356  14.415   1.063
33561W        W34042  12.688  13.745   3.188
33562W        W34043  11.723  13.230   0.547
33563W        W34044  13.403  12.615   1.768
33564W        W34045  13.683  12.414   2.167
33565W        W34046  12.888  13.088   2.101
33566W        W34047  13.358  13.462   0.233
33567W        W34048  13.030  11.483   1.561
33568W        W34049  14.509  11.761   0.829
33569W        W34050  11.003  14.350   2.860
33570W        W34051  11.420  13.576   2.392
33571W        W34052  10.987  14.422   0.624
33572W        W34053  12.886  11.692   2.430
33573W        W34054  12.249  13.715   0.279
33574W        W34055  14.154  14.097   0.465
33575W        W34056  13.129  12.750   0.479
33576W        W34057  11.972  11.941   0.996
33577W        W34058  12.804  11.851   0.048
33578W        W34059  13.388  13.416   3.226
33579W        W34060  13.741  11.322   0.843
33580W        W34061  11.071  11.170   0.291
33581W        W34062  12.357  13.489   2.581
33582W        W34063  12.156  13.405   1.673
33583W        W34064  11.898  13.357   0.071
33584W        W34065  11.139  13.598   0.839
33585W        W34066  11.643  12.668   3.281
33586W        W34067  12.347  11.228   3.467
33587W        W34068  13.056  11.370   2.823
33588W        W34069  12.251  11.138   1.104
33589W        W34070  13.310  11.215   0.609
33590W        W34071  11.255  11.147   2.186
33591W        W34072  11.303  12.110   1.556
33592W        W34073  13.992  11.218   1.962
33593W        W34074  11.414  11.716   0.776
33594W        W34075  13.985  11.404   2.392
33595W        W34076  14.381  12.607   0.077
33596W        W34077  11.673  11.365   1.896
33597W        W34078  12.787  11.937   2.836
33598W        W34079  10.935  11.627   0.314
33599W        W34080  11.721  13.016   2.875
33600W        W34081  13.079  12.414   2.054
33601W        W34082  12.946  14.493   0.350
33602W        W34083  11.092  13.000   0.047
33603W        W34084  11.827  13.411   3.173
33604W        W34085  11.348  12.578   2.804
33605W        W34086  12.339  12.683   2.598
33606W        W34087  14.107  11.042   2.860
33607W        W34088  14.505  12.652   2.851
33608W        W34089  14.493  12.852   0.537
33609W        W34090  13.356  13.184   0.636
33610W        W34091  13.830  14.484   0.331
33611W        W34092  13.007  12.474   3.473
33612W        W34093  11.337  13.441   3.513
33613W        W34094  14.543  11.363   3.465
33614W        W34095  14.261  12.291   2.086
33615W        W34096  12.569  14.421   3.563
33616W        W34097  12.424  11.050   0.290
33617W        W34098  13.963  13.649   0.233
33618W        W34099  11.732  11.742   3.119
33619W        W34100  12.166  13.736   2.981
33620W        W34101  14.292  11.727   2.779
33621W        W34102  13.503  14.386   0.747
33622W        W34103  13.742  13.005   2.114
33623W        W34104  11.992  11.421   2.781
33624W        W34105  12.461  12.490   3.538
33625W        W34106  11.964  13.669   0.732
33626W        W34107  13.719  13.167   0.996
33627W        W34108  11.487  11.793   2.720
33628W        W34109  12.816  13.855   1.184
33629W        W34110  12.788  11.048   3.084
33630W        W34111  13.568  13.753   2.163
33631W        W34112  13.871  14.097   1.871
33632W        W34113  13.090  13.899   0.299
33633W        W34114  11.100  13.791   3.141
33634W        W34115  11.843  11.783   2.379
33635W        W34116  11.813  11.131   1.489
33636W        W34117  13.434  11.973   2.181
33637W        W34118  12.232  13.144   0.381
33638W        W34119  11.557  13.844   3.303
33639W        W34120  13.944  14.526   1.100
33640W        W34121  12.043  11.546   1.545
33641W        W34122  11.812  13.039   1.635
33642W        W34123  12.125  14.450   2.385
33643W        W34124  14.192  14.546   3.417
33644W        W34125  13.351  12.734   2.350
33645W        W34126  11.200  12.532   0.265
33646W        W34127  14.334  14.190   0.962
33647W        W34128  14.171  11.514   0.581
33648W        W34129  12.310  11.033   2.984
33649W        W34130  14.016  13.835   1.442
33650W        W34131  14.045  12.391   1.347
33651W        W34132  12.162  12.064   1.563
33652W        W34133  12.407  12.326   2.887
33653W        W34134  13.518  13.479   2.750
33654W        W34135  12.168  11.933   2.862
33655W        W34136  12.147  14.399   1.478
33656W        W34137  11.464  14.358   3.112
33657W        W34138  11.576  13.719   0.242
33658W        W34139  14.093  13.477   1.052
33659W        W34140  11.697  12.269   2.938
33660W        W34141  14.470  12.199   0.419
33661W        W34142  12.215  13.256   0.890
33662W        W34143  13.314  12.638   2.971
33663W        W34144  13.205  12.266   2.515
33664W        W34145  11.765  12.638   2.544
33665W        W34146  13.975  14.526   2.373
33666W        W34147  13.766  11.160   3.367
33667W        W34148  11.430  11.310   2.954
33668W        W34149  11.769  12.333   2.007
33669W        W34150  12.138  12.147   0.129
33670W        W34151  10.941  13.906   2.674
33671W        W34152  12.526  12.615   2.117
33672W        W34153  12.349  11.640   0.222
33673W        W34154  11.484  12.456   1.003
33674W        W34155  11.255  14.308   2.440
33675W        W34156  14.050  12.534   0.548
33676W        W34157  14.145  11.450   3.234
33677W        W34158  13.581  13.659   1.197
33678W        W34159  11.179  12.583   3.374
33679W        W34160  14.145  11.047   0.670
33680W        W34161  13.665  13.522   0.681
33681W        W34162  12.567  12.580   0.766
33682W        W34163  13.754  11.384   0.289
33683W        W34164  13.819  11.991   2.475
33684W        W34165  11.528  12.584   1.682
33685W        W34166  11.822  13.523   1.331
33686W        W34167  13.585  12.143   1.296
33687W        W34168  12.608  11.522   1.992
33688W        W34169  14.570  13.433   2.503
33689W        W34170  14.488  11.420   2.064
33690W        W34171  11.027  14.250   1.440
33691W        W34172  11.536  13.437   0.976
33692W        W34173  11.451  11.054   3.529
33693W        W34174  12.570  13.907   3.631
33694W        W34175  14.325  12.875   1.421
33695W        W34176  13.679  13.052   0.301
33696W        W34177  12.974  14.573   2.513
33697W        W34178  13.831  13.295   3.550
33698W        W34179  12.646  11.005   0.830
33699W        W34180  13.359  11.874   1.689
33700W        W34181  11.045  13.461   2.021
33701W        W34182  12.298  11.423   0.662
33702W        W34183  12.102  12.907   3.511
33703W        W34184  13.096  11.888   1.225
33704W        W34185  13.301  13.298   2.347
33705W        W34186  11.455  13.903   2.782
33706W        W34187  12.046  13.886   3.505
33707W        W34188  11.897  11.683   0.519
33708W        W34189  13.414  11.825   0.844
33709W        W34190  13.372  13.933   3.081
33710W        W34191  12.057  12.525   1.680
33711W        W34192  11.712  14.223   2.545
33712W        W34193  14.457  14.340   0.146
33713W        W34194  11.320  13.012   3.142
33714W        W34195  13.315  13.274   1.830
33715W        W34196  11.751  12.923   1.072
33716W        W34197  12.122  13.930   2.467
33717W        W34198  12.500  11.349   1.508
33718W        W34199  11.111  13.333   0.438
33719W        W34200  12.630  12.284   0.308
33720W        W34201  11.276  12.833   1.327
33721W        W34202  12.566  11.475   2.791
33722W        W34203  14.238  11.184   0.218
33723W        W34204  14.331  12.930   3.317
33724W        W34205  12.985  14.187   3.469
33725W        W34206  14.543  13.281   2.991
33726W        W34207  13.951  14.079   3.602
33727W        W34208  11.690  14.535   2.080
33728W        W34209  14.549  13.157   0.954
33729W        W34210  13.079  12.424   1.467
33730W        W34211  12.846  11.036   1.357
33731W        W34212  11.905  14.020   1.194
33732W        W34213  12.404  11.761   2.419
33733W        W34214  12.104  11.130   1.888
33734W        W34215  11.167  13.952   0.436
33735W        W34216  12.983  13.316   1.154
33736W        W34217  11.858  14.111   3.033
33737W        W34218  11.335  12.934   0.729
33738W        W34219  11.220  11.477   1.728
33739W        W34220  12.768  13.442   1.785
33740W        W34221  11.020  11.296   0.805
33741W        W34222  13.684  12.502   2.732
33742W        W34223  13.561  11.888   0.304
33743W        W34224  14.078  13.560   1.952
33744W        W34225  12.739  14.044   1.783
33745W        W34226  12.151  14.148   0.694
33746W        W34227  11.233  14.311   1.865
33747W        W34228  13.430  12.069   3.500
33748W        W34229  11.413  11.599   3.499
33749W        W34230  11.144  12.199   0.832
33750W        W34231  11.835  12.188   0.557
33751W        W34232  13.598  12.515   3.374
33752W        W34233  11.941  12.796   2.083
33753W        W34234  13.415  11.082   1.203
33754W        W34235  12.546  14.513   1.706
33755W        W34236  13.760  13.975   2.643
33756W        W34237  13.344  14.124   1.754
33757W        W34238  13.363  13.104   1.348
33758W        W34239  12.825  11.329   0.419
33759W        W34240  14.506  10.957   1.141
33760W        W34241  12.194  12.592   0.304
33761W        W34242  14.360  11.929   1.294
33762W        W34243  13.052  13.099   0.171
33763W        W34244  13.988  13.299   2.919
33764W        W34245  13.642  14.000   0.386
33765W        W34246  12.257  11.675   3.292
33766W        W34247  12.077  12.259   2.533
33767W        W34248  14.169  13.754   2.810
33768W        W34249  13.269  11.704   3.187
33769W        W34250  11.113  12.175   2.964
33770W        W34251  12.873  12.652   2.690
33771W        W34252  11.230  13.410   1.347
33772W        W34253  11.377  12.707   2.237
33773W        W34254  13.694  12.993   2.587
33774W        W34255  13.466  14.373   3.398
33775W        W34256  13.362  12.112   2.951
33776W        W34257  13.639  14.166   1.356
33777W        W34258  12.126  14.241   1.948
33778W        W34259  13.931  13.412   2.367
33779W        W34260  12.981  13.484   3.504
33780W        W34261  11.586  13.437   1.843
33781W        W34262  13.932  13.196   1.488
33782W        W34263  13.573  14.262   2.239
33783W        W34264  11.551  13.991   2.109
33784W        W34265  12.572  12.043   3.319
33785W        W34266  13.023  14.209   0.830
33786W        W34267  12.331  13.464   3.468
33787W        W34268  12.457  13.702   0.845
33788W        W34269  11.678  12.442   0.104
33789W        W34270  11.017  14.528   7.003
33790W        W34271  11.393  13.421   6.526
33791W        W34272  14.098  13.151   4.296
33792W        W34273  14.228  14.236   6.323
33793W        W34274  12.146  14.227   3.849
33794W        W34275  12.229  12.379   4.832
33795W        W34276  11.744  12.227   4.996
33796W        W34277  12.735  13.042   4.430
33797W        W34278  12.410  14.134   6.785
33798W        W34279  11.059  11.695   6.748
33799W        W34280  11.821  10.975   6.550
33800W        W34281  13.515  11.363   5.437
33801W        W34282  13.164  12.234   4.007
33802W        W34283  13.734  11.668   7.098
33803W        W34284  11.100  11.460   6.223
33804W        W34285  11.199  14.079   7.244
33805W        W34286  12.721  13.469   3.976
33806W        W34287  11.153  12.252   5.669
33807W        W34288  12.046  12.143   6.906
33808W        W34289  14.269  13.045   6.264
33809W        W34290  12.577  12.378   5.291
33810W        W34291  13.123  13.717   5.660
33811W        W34292  11.623  13.151   5.892
33812W        W34293  10.982  12.679   5.463
33813W        W34294  12.018  12.651   6.655
33814W        W34295  14.289  12.434   6.909
33815W        W34296  11.905  13.878   5.354
33816W        W34297  13.026  13.567   6.488
33817W        W34298  12.246  12.207   5.713
33818W        W34299  12.538  12.991   5.356
33819W        W34300  13.535  13.764   7.204
33820W        W34301  12.614  13.084   7.214
33821W        W34302  12.595  12.800   6.692
33822W        W34303  11.004  12.191   7.214
33823W        W34304  13.836  13.726   6.813
33824W        W34305  11.417  11.308   4.811
33825W        W34306  11.944  13.566   5.810
33826W        W34307  14.407  13.349   5.100
33827W        W34308  14.105  11.702   3.762
33828W        W34309  14.570  12.503   6.068
33829W        W34310  12.537  14.210   5.821
33830W        W34311  14.311  13.676   4.259
33831W        W34312  11.440  14.462   4.013
33832W        W34313  11.833  14.508   4.689
33833W        W34314  11.630  11.262   6.115
33834W        W34315  14.253  12.280   6.390
33835W        W34316  13.658  12.702   4.849
33836W        W34317  13.624  12.390   3.876
33837W        W34318  12.832  13.534   6.016
33838W        W34319  12.638  11.864   5.215
33839W        W34320  13.238  13.951   6.209
33840W        W34321  14.109  12.742   4.631
33841W        W34322  13.011  11.400   4.647
33842W        W34323  11.668  14.094   4.330
33843W        W34324  11.039  11.593   4.929
33844W        W34325  13.825  12.200   5.403
33845W        W34326  11.283  13.817   5.318
33846W        W34327  12.624  14.167   4.188
33847W        W34328  14.016  12.193   3.652
33848W        W34329  11.039  13.951   5.816
33849W        W34330  12.203  12.883   4.915
33850W        W34331  12.225  11.288   6.008
33851W        W34332  14.454  11.050   5.305
33852W        W34333  11.328  11.955   3.952
33853W        W34334  11.390  13.911   4.746
33854W        W34335  12.521  13.394   4.994
33855W        W34336  13.853  14.253   6.708
33856W        W34337  12.779  11.895   4.392
33857W        W34338  14.162  14.293   5.164
33858W        W34339  13.839  12.146   6.762
33859W        W34340  14.552  13.802   4.896
33860W        W34341  13.179  13.094   6.380
33861W        W34342  10.945  12.645   4.586
33862W        W34343  12.056  13.060   6.159
33863W        W34344  13.260  12.324   4.537
33864W        W34345  13.137  12.814   4.641
33865W        W34346  11.480  12.234   6.115
33866W        W34347  11.465  12.110   7.037
33867W        W34348  11.355  11.027   5.196
33868W        W34349  13.123  11.374   5.757
33869W        W34350  12.771  11.559   6.920
33870W        W34351  13.126  11.708   4.098
33871W        W34352  14.309  14.101   6.852
33872W        W34353  13.276  11.182   6.891
33873W        W34354  14.295  13.483   7.013
33874W        W34355  13.725  11.650   6.609
33875W        W34356  13.525  11.588   4.879
33876W        W34357  13.918  12.722   7.283
33877W        W34358  11.658  14.298   5.269
33878W        W34359  12.316  12.015   4.255
33879W        W34360  11.885  11.299   6.919
33880W        W34361  13.937  11.783   4.600
33881W        W34362  14.304  12.265   4.545
33882W        W34363  12.047  14.482   7.016
33883W        W34364  11.973  11.018   4.251
33884W        W34365  14.294  11.552   5.286
33885W        W34366  14.444  13.801   3.731
33886W        W34367  11.351  13.004   5.433
33887W        W34368  13.268  11.591   3.663
33888W        W34369  14.402  13.923   5.383
33889W        W34370  14.441  11.117   6.133
33890W        W34371  12.886  12.329   6.687
33891W        W34372  12.979  13.668   4.390
33892W        W34373  13.379  12.962   7.130
33893W        W34374  13.053  10.939   5.439
33894W        W34375  11.665  11.842   5.502
33895W        W34376  13.078  14.235   4.982
33896W        W34377  14.272  11.832   5.854
33897W        W34378  12.909  14.179   6.621
33898W        W34379  14.252  13.238   3.826
33899W        W34380  12.687  12.721   4.887
33900W        W34381  14.539  11.232   6.628
33901W        W34382  12.688  13.067   6.222
33902W        W34383  12.905  11.953   5.667
33903W        W34384  13.757  12.251   4.505
33904W        W34385  14.044  11.984   4.147
33905W        W34386  13.853  14.024   4.536
33906W        W34387  13.687  13.627   5.332
33907W        W34388  13.583  12.706   4.310
33908W        W34389  13.016  12.916   5.296
33909W        W34390  13.897  12.704   5.363
33910W        W34391  11.272  11.719   5.787
33911W        W34392  14.050  12.771   6.614
33912W        W34393  14.401  14.389   5.760
33913W        W34394  12.331  13.833   5.162
33914W        W34395  13.338  14.366   6.486
33915W        W34396  13.332  11.696   6.250
33916W        W34397  12.539  14.404   6.311
33917W        W34398  14.236  11.358   4.777
33918W        W34399  14.027  12.677   6.078
33919W        W34400  11.010  11.998   6.116
33920W        W34401  13.870  11.793   5.134
33921W        W34402  14.281  11.944   6.911
33922W        W34403  13.166  13.643   5.129
33923W        W34404  12.422  14.234   4.742
33924W        W34405  11.537  11.414   4.000
33925W        W34406  12.641  11.068   5.810
33926W        W34407  11.669  14.188   3.658
33927W        W34408  12.043  12.654   4.409
33928W        W34409  12.697  13.283   6.722
33929W        W34410  12.527  11.641   4.712
33930W        W34411  13.883  11.238   5.140
33931W        W34412  13.603  14.520   5.468
33932W        W34413  13.015  14.168   5.808
33933W        W34414  12.411  13.205   5.769
33934W        W34415  14.181  13.928   5.895
33935W        W34416  11.875  11.431   4.664
33936W        W34417  12.397  13.728   5.624
33937W        W34418  11.880  11.659   3.689
33938W        W34419  12.681  12.268   6.083
33939W        W34420  13.529  11.134   5.953
33940W        W34421  12.653  12.795   3.996
33941W        W34422  11.921  11.110   3.766
33942W        W34423  12.659  12.191   4.817
33943W        W34424  13.629  11.167   6.516
33944W        W34425  12.217  13.179   6.625
33945W        W34426  13.021  12.961   6.842
33946W        W34427  13.638  12.991   6.735
33947W        W34428  12.922  11.131   7.240
33948W        W34429  12.144  11.747   5.633
33949W        W34430  11.570  11.703   5.031
33950W        W34431  11.356  14.415   4.707
33951W        W34432  12.688  13.745   6.832
33952W        W34433  13.403  12.615   5.412
33953W        W34434  13.683  12.414   5.811
33954W        W34435  12.888  13.088   5.745
33955W        W34436  13.358  13.462   3.877
33956W        W34437  13.030  11.483   5.205
33957W        W34438  14.509  11.761   4.473
33958W        W34439  11.003  14.350   6.504
33959W        W34440  11.420  13.576   6.036
33960W        W34441  10.987  14.422   4.268
33961W        W34442  12.886  11.692   6.074
33962W        W34443  12.249  13.715   3.923
33963W        W34444  14.154  14.097   4.109
33964W        W34445  13.129  12.750   4.123
33965W        W34446  11.972  11.941   4.640
33966W        W34447  12.804  11.851   3.692
33967W        W34448  13.388  13.416   6.870
33968W        W34449  13.741  11.322   4.487
33969W        W34450  11.071  11.170   3.935
33970W        W34451  12.357  13.489   6.225
33971W        W34452  12.156  13.405   5.317
33972W        W34453  11.898  13.357   3.715
33973W        W34454  11.139  13.598   4.483
33974W        W34455  11.643  12.668   6.925
33975W        W34456  12.347  11.228   7.111
33976W        W34457  13.056  11.370   6.467
33977W        W34458  12.251  11.138   4.748
33978W        W34459  13.310  11.215   4.253
33979W        W34460  11.255  11.147   5.830
33980W        W34461  11.303  12.110   5.200
33981W        W34462  13.992  11.218   5.606
33982W        W34463  11.414  11.716   4.420
33983W        W34464  13.985  11.404   6.036
33984W        W34465  14.381  12.607   3.721
33985W        W34466  11.673  11.365   5.540
33986W        W34467  12.787  11.937   6.480
33987W        W34468  10.935  11.627   3.958
33988W        W34469  11.721  13.016   6.519
33989W        W34470  13.079  12.414   5.698
33990W        W34471  12.946  14.493   3.994
33991W        W34472  11.092  13.000   3.691
33992W        W34473  11.827  13.411   6.817
33993W        W34474  11.348  12.578   6.448
33994W        W34475  12.339  12.683   6.242
33995W        W34476  14.107  11.042   6.504
33996W        W34477  14.505  12.652   6.495
33997W        W34478  14.493  12.852   4.181
33998W        W34479  13.356  13.184   4.280
33999W        W34480  13.830  14.484   3.975
34000W        W34481  13.007  12.474   7.117
34001W        W34482  11.337  13.441   7.157
34002W        W34483  14.543  11.363   7.109
34003W        W34484  14.261  12.291   5.730
34004W        W34485  12.569  14.421   7.207
34005W        W34486  12.424  11.050   3.934
34006W        W34487  13.963  13.649   3.877
34007W        W34488  11.732  11.742   6.763
34008W        W34489  12.166  13.736   6.625
34009W        W34490  14.292  11.727   6.423
34010W        W34491  13.503  14.386   4.391
34011W        W34492  13.742  13.005   5.758
34012W        W34493  11.992  11.421   6.425
34013W        W34494  12.461  12.490   7.182
34014W        W34495  11.964  13.669   4.376
34015W        W34496  13.719  13.167   4.640
34016W        W34497  11.487  11.793   6.364
34017W        W34498  12.816  13.855   4.828
34018W        W34499  14.566  12.415   5.009
34019W        W34500  12.788  11.048   6.728
34020W        W34501  13.568  13.753   5.807
34021W        W34502  13.871  14.097   5.515
34022W        W34503  13.090  13.899   3.943
34023W        W34504  11.100  13.791   6.785
34024W        W34505  11.843  11.783   6.023
34025W        W34506  11.813  11.131   5.133
34026W        W34507  13.434  11.973   5.825
34027W        W34508  12.232  13.144   4.025
34028W        W34509  14.230  13.086   5.524
34029W        W34510  11.557  13.844   6.947
34030W        W34511  13.944  14.526   4.744
34031W        W34512  12.043  11.546   5.189
34032W        W34513  11.812  13.039   5.279
34033W        W34514  12.125  14.450   6.029
34034W        W34515  14.192  14.546   7.061
34035W        W34516  13.351  12.734   5.994
34036W        W34517  11.200  12.532   3.909
34037W        W34518  14.334  14.190   4.606
34038W        W34519  14.171  11.514   4.225
34039W        W34520  12.310  11.033   6.628
34040W        W34521  14.016  13.835   5.086
34041W        W34522  14.045  12.391   4.991
34042W        W34523  12.162  12.064   5.207
34043W        W34524  12.407  12.326   6.531
34044W        W34525  13.518  13.479   6.394
34045W        W34526  12.168  11.933   6.506
34046W        W34527  12.147  14.399   5.122
34047W        W34528  11.464  14.358   6.756
34048W        W34529  11.576  13.719   3.886
34049W        W34530  14.093  13.477   4.696
34050W        W34531  11.697  12.269   6.582
34051W        W34532  14.470  12.199   4.063
34052W        W34533  12.215  13.256   4.534
34053W        W34534  13.314  12.638   6.615
34054W        W34535  13.205  12.266   6.159
34055W        W34536  11.765  12.638   6.188
34056W        W34537  13.975  14.526   6.017
34057W        W34538  13.766  11.160   7.011
34058W        W34539  11.430  11.310   6.598
34059W        W34540  11.769  12.333   5.651
34060W        W34541  12.138  12.147   3.773
34061W        W34542  10.941  13.906   6.318
34062W        W34543  12.526  12.615   5.761
34063W        W34544  12.349  11.640   3.866
34064W        W34545  11.484  12.456   4.647
34065W        W34546  11.255  14.308   6.084
34066W        W34547  14.050  12.534   4.192
34067W        W34548  14.145  11.450   6.878
34068W        W34549  13.581  13.659   4.841
34069W        W34550  11.179  12.583   7.018
34070W        W34551  14.145  11.047   4.314
34071W        W34552  13.665  13.522   4.325
34072W        W34553  12.567  12.580   4.410
34073W        W34554  13.754  11.384   3.933
34074W        W34555  13.819  11.991   6.119
34075W        W34556  11.528  12.584   5.326
34076W        W34557  11.822  13.523   4.975
34077W        W34558  13.585  12.143   4.940
34078W        W34559  12.608  11.522   5.636
34079W        W34560  14.570  13.433   6.147
34080W        W34561  11.027  14.250   5.084
34081W        W34562  11.536  13.437   4.620
34082W        W34563  11.451  11.054   7.173
34083W        W34564  12.570  13.907   7.275
34084W        W34565  14.325  12.875   5.065
34085W        W34566  13.679  13.052   3.945
34086W        W34567  12.974  14.573   6.157
34087W        W34568  13.831  13.295   7.194
34088W        W34569  12.646  11.005   4.474
34089W        W34570  13.359  11.874   5.333
34090W        W34571  11.045  13.461   5.665
34091W        W34572  12.298  11.423   4.306
34092W        W34573  12.102  12.907   7.155
34093W        W34574  13.096  11.888   4.869
34094W        W34575  13.301  13.298   5.991
34095W        W34576  11.455  13.903   6.426
34096W        W34577  12.046  13.886   7.149
34097W        W34578  11.897  11.683   4.163
34098W        W34579  13.414  11.825   4.488
34099W        W34580  13.372  13.933   6.725
34100W        W34581  12.057  12.525   5.324
34101W        W34582  11.712  14.223   6.189
34102W        W34583  14.457  14.340   3.790
34103W        W34584  11.320  13.012   6.786
34104W        W34585  13.315  13.274   5.474
34105W        W34586  11.751  12.923   4.716
34106W        W34587  12.122  13.930   6.111
34107W        W34588  12.500  11.349   5.152
34108W        W34589  11.111  13.333   4.082
34109W        W34590  12.630  12.284   3.952
34110W        W34591  11.276  12.833   4.971
34111W        W34592  12.566  11.475   6.435
34112W        W34593  14.238  11.184   3.862
34113W        W34594  14.331  12.930   6.961
34114W        W34595  12.985  14.187   7.113
34115W        W34596  14.543  13.281   6.635
34116W        W34597  13.951  14.079   7.246
34117W        W34598  11.690  14.535   5.724
34118W        W34599  14.549  13.157   4.598
34119W        W34600  13.079  12.424   5.111
34120W        W34601  12.846  11.036   5.001
34121W        W34602  11.905  14.020   4.838
34122W        W34603  12.404  11.761   6.063
34123W        W34604  12.104  11.130   5.532
34124W        W34605  11.167  13.952   4.080
34125W        W34606  12.983  13.316   4.798
34126W        W34607  11.858  14.111   6.677
34127W        W34608  11.335  12.934   4.373
34128W        W34609  11.220  11.477   5.372
34129W        W34610  12.768  13.442   5.429
34130W        W34611  11.020  11.296   4.449
34131W        W34612  13.684  12.502   6.376
34132W        W34613  13.561  11.888   3.948
34133W        W34614  14.078  13.560   5.596
34134W        W34615  12.739  14.044   5.427
34135W        W34616  12.151  14.148   4.338
34136W        W34617  13.433  11.051   3.768
34137W        W34618  11.233  14.311   5.509
34138W        W34619  13.430  12.069   7.144
34139W        W34620  11.413  11.599   7.143
34140W        W34621  11.144  12.199   4.476
34141W        W34622  11.835  12.188   4.201
34142W        W34623  13.598  12.515   7.018
34143W        W34624  11.941  12.796   5.727
34144W        W34625  13.415  11.082   4.847
34145W        W34626  12.546  14.513   5.350
34146W        W34627  13.760  13.975   6.287
34147W        W34628  13.344  14.124   5.398
34148W        W34629  13.363  13.104   4.992
34149W        W34630  12.825  11.329   4.063
34150W        W34631  14.506  10.957   4.785
34151W        W34632  12.194  12.592   3.948
34152W        W34633  14.360  11.929   4.938
34153W        W34634  13.052  13.099   3.815
34154W        W34635  13.988  13.299   6.563
34155W        W34636  13.642  14.000   4.030
34156W        W34637  12.257  11.675   6.936
34157W        W34638  12.077  12.259   6.177
34158W        W34639  14.169  13.754   6.454
34159W        W34640  13.269  11.704   6.831
34160W        W34641  11.113  12.175   6.608
34161W        W34642  12.873  12.652   6.334
34162W        W34643  11.230  13.410   4.991
34163W        W34644  11.377  12.707   5.881
34164W        W34645  13.694  12.993   6.231
34165W        W34646  13.466  14.373   7.042
34166W        W34647  13.362  12.112   6.595
34167W        W34648  13.639  14.166   5.000
34168W        W34649  12.641  13.886   6.323
34169W        W34650  12.126  14.241   5.592
34170W        W34651  13.931  13.412   6.011
34171W        W34652  12.981  13.484   7.148
34172W        W34653  11.586  13.437   5.487
34173W        W34654  13.932  13.196   5.132
34174W        W34655  13.573  14.262   5.883
34175W        W34656  11.551  13.991   5.753
34176W        W34657  12.572  12.043   6.963
34177W        W34658  13.023  14.209   4.474
34178W        W34659  12.331  13.464   7.112
34179W        W34660  12.457  13.702   4.489
34180W        W34661  11.678  12.442   3.748
34181W        W34662  11.017  14.528  10.648
34182W        W34663  11.393  13.421  10.171
34183W        W34664  14.098  13.151   7.941
34184W        W34665  14.228  14.236   9.968
34185W        W34666  12.146  14.227   7.494
34186W        W34667  12.229  12.379   8.477
34187W        W34668  11.744  12.227   8.641
34188W        W34669  12.735  13.042   8.075
34189W        W34670  12.410  14.134  10.430
34190W        W34671  11.059  11.695  10.393
34191W        W34672  11.821  10.975  10.195
34192W        W34673  13.515  11.363   9.082
34193W        W34674  13.164  12.234   7.652
34194W        W34675  13.734  11.668  10.743
34195W        W34676  11.100  11.460   9.868
34196W        W34677  11.199  14.079  10.889
34197W        W34678  12.721  13.469   7.621
34198W        W34679  11.153  12.252   9.314
34199W        W34680  12.046  12.143  10.551
34200W        W34681  14.505  12.002   9.050
34201W        W34682  14.269  13.045   9.909
34202W        W34683  12.577  12.378   8.936
34203W        W34684  13.123  13.717   9.305
34204W        W34685  11.623  13.151   9.537
34205W        W34686  10.982  12.679   9.108
34206W        W34687  12.018  12.651  10.300
34207W        W34688  14.289  12.434  10.554
34208W        W34689  11.905  13.878   8.999
34209W        W34690  13.026  13.567  10.133
34210W        W34691  12.246  12.207   9.358
34211W        W34692  12.538  12.991   9.001
34212W        W34693  13.535  13.764  10.849
34213W        W34694  12.614  13.084  10.859
34214W        W34695  12.595  12.800  10.337
34215W        W34696  11.004  12.191  10.859
34216W        W34697  13.836  13.726  10.458
34217W        W34698  11.417  11.308   8.456
34218W        W34699  11.944  13.566   9.455
34219W        W34700  14.407  13.349   8.745
34220W        W34701  13.820  11.749   9.312
34221W        W34702  14.105  11.702   7.407
34222W        W34703  14.570  12.503   9.713
34223W        W34704  12.537  14.210   9.466
34224W        W34705  14.311  13.676   7.904
34225W        W34706  11.440  14.462   7.658
34226W        W34707  11.833  14.508   8.334
34227W        W34708  11.630  11.262   9.760
34228W        W34709  14.253  12.280  10.035
34229W        W34710  13.658  12.702   8.494
34230W        W34711  13.624  12.390   7.521
34231W        W34712  12.832  13.534   9.661
34232W        W34713  12.638  11.864   8.860
34233W        W34714  13.238  13.951   9.854
34234W        W34715  14.109  12.742   8.276
34235W        W34716  13.011  11.400   8.292
34236W        W34717  11.668  14.094   7.975
34237W        W34718  11.039  11.593   8.574
34238W        W34719  13.825  12.200   9.048
34239W        W34720  11.283  13.817   8.963
34240W        W34721  12.624  14.167   7.833
34241W        W34722  14.016  12.193   7.297
34242W        W34723  11.039  13.951   9.461
34243W        W34724  11.830  13.523   9.941
34244W        W34725  12.203  12.883   8.560
34245W        W34726  12.225  11.288   9.653
34246W        W34727  11.673  12.922   7.418
34247W        W34728  11.328  11.955   7.597
34248W        W34729  11.390  13.911   8.391
34249W        W34730  12.521  13.394   8.639
34250W        W34731  13.853  14.253  10.353
34251W        W34732  12.779  11.895   8.037
34252W        W34733  14.162  14.293   8.809
34253W        W34734  13.839  12.146  10.407
34254W        W34735  14.552  13.802   8.541
34255W        W34736  13.179  13.094  10.025
34256W        W34737  10.945  12.645   8.231
34257W        W34738  12.056  13.060   9.804
34258W        W34739  13.260  12.324   8.182
34259W        W34740  13.137  12.814   8.286
34260W        W34741  11.480  12.234   9.760
34261W        W34742  11.355  11.027   8.841
34262W        W34743  13.123  11.374   9.402
34263W        W34744  12.771  11.559  10.565
34264W        W34745  13.126  11.708   7.743
34265W        W34746  14.309  14.101  10.497
34266W        W34747  13.276  11.182  10.536
34267W        W34748  14.295  13.483  10.658
34268W        W34749  13.725  11.650  10.254
34269W        W34750  13.525  11.588   8.524
34270W        W34751  13.918  12.722  10.928
34271W        W34752  11.658  14.298   8.914
34272W        W34753  12.316  12.015   7.900
34273W        W34754  11.885  11.299  10.564
34274W        W34755  13.937  11.783   8.245
34275W        W34756  14.304  12.265   8.190
34276W        W34757  12.047  14.482  10.661
34277W        W34758  11.973  11.018   7.896
34278W        W34759  14.294  11.552   8.931
34279W        W34760  11.351  13.004   9.078
34280W        W34761  13.268  11.591   7.308
34281W        W34762  14.402  13.923   9.028
34282W        W34763  14.441  11.117   9.778
34283W        W34764  12.886  12.329  10.332
34284W        W34765  12.979  13.668   8.035
34285W        W34766  13.379  12.962  10.775
34286W        W34767  13.053  10.939   9.084
34287W        W34768  11.665  11.842   9.147
34288W        W34769  11.219  13.042   9.921
34289W        W34770  13.078  14.235   8.627
34290W        W34771  14.272  11.832   9.499
34291W        W34772  12.909  14.179  10.266
34292W        W34773  14.252  13.238   7.471
34293W        W34774  12.687  12.721   8.532
34294W        W34775  12.688  13.067   9.867
34295W        W34776  12.905  11.953   9.312
34296W        W34777  13.853  14.024   8.181
34297W        W34778  13.687  13.627   8.977
34298W        W34779  13.583  12.706   7.955
34299W        W34780  13.016  12.916   8.941
34300W        W34781  13.897  12.704   9.008
34301W        W34782  11.272  11.719   9.432
34302W        W34783  14.050  12.771  10.259
34303W        W34784  14.401  14.389   9.405
34304W        W34785  12.331  13.833   8.807
34305W        W34786  13.338  14.366  10.131
34306W        W34787  13.332  11.696   9.895
34307W        W34788  12.539  14.404   9.956
34308W        W34789  14.236  11.358   8.422
34309W        W34790  14.027  12.677   9.723
34310W        W34791  11.010  11.998   9.761
34311W        W34792  13.870  11.793   8.779
34312W        W34793  14.281  11.944  10.556
34313W        W34794  13.166  13.643   8.774
34314W        W34795  12.422  14.234   8.387
34315W        W34796  11.537  11.414   7.645
34316W        W34797  12.641  11.068   9.455
34317W        W34798  11.669  14.188   7.303
34318W        W34799  12.043  12.654   8.054
34319W        W34800  12.697  13.283  10.367
34320W        W34801  12.527  11.641   8.357
34321W        W34802  13.883  11.238   8.785
34322W        W34803  13.603  14.520   9.113
34323W        W34804  13.015  14.168   9.453
34324W        W34805  12.411  13.205   9.414
34325W        W34806  14.181  13.928   9.540
34326W        W34807  11.875  11.431   8.309
34327W        W34808  12.397  13.728   9.269
34328W        W34809  11.880  11.659   7.334
34329W        W34810  12.681  12.268   9.728
34330W        W34811  13.529  11.134   9.598
34331W        W34812  10.949  12.977   9.483
34332W        W34813  12.653  12.795   7.641
34333W        W34814  12.659  12.191   8.462
34334W        W34815  13.629  11.167  10.161
34335W        W34816  12.217  13.179  10.270
34336W        W34817  13.021  12.961  10.487
34337W        W34818  13.638  12.991  10.380
34338W        W34819  12.922  11.131  10.885
34339W        W34820  12.144  11.747   9.278
34340W        W34821  11.570  11.703   8.676
34341W        W34822  11.356  14.415   8.352
34342W        W34823  12.688  13.745  10.477
34343W        W34824  11.723  13.230   7.836
34344W        W34825  13.403  12.615   9.057
34345W        W34826  13.683  12.414   9.456
34346W        W34827  12.888  13.088   9.390
34347W        W34828  13.358  13.462   7.522
34348W        W34829  14.509  11.761   8.118
34349W        W34830  11.003  14.350  10.149
34350W        W34831  11.420  13.576   9.681
34351W        W34832  10.987  14.422   7.913
34352W        W34833  12.886  11.692   9.719
34353W        W34834  12.249  13.715   7.568
34354W        W34835  14.154  14.097   7.754
34355W        W34836  13.129  12.750   7.768
34356W        W34837  11.972  11.941   8.285
34357W        W34838  12.804  11.851   7.337
34358W        W34839  13.388  13.416  10.515
34359W        W34840  13.741  11.322   8.132
34360W        W34841  11.071  11.170   7.580
34361W        W34842  12.357  13.489   9.870
34362W        W34843  12.156  13.405   8.962
34363W        W34844  11.898  13.357   7.360
34364W        W34845  11.139  13.598   8.128
34365W        W34846  11.643  12.668  10.570
34366W        W34847  12.347  11.228  10.756
34367W        W34848  12.251  11.138   8.393
34368W        W34849  13.310  11.215   7.898
34369W        W34850  11.255  11.147   9.475
34370W        W34851  11.303  12.110   8.845
34371W        W34852  13.992  11.218   9.251
34372W        W34853  11.414  11.716   8.065
34373W        W34854  13.985  11.404   9.681
34374W        W34855  14.381  12.607   7.366
34375W        W34856  11.673  11.365   9.185
34376W        W34857  12.787  11.937  10.125
34377W        W34858  10.935  11.627   7.603
34378W        W34859  11.721  13.016  10.164
34379W        W34860  13.079  12.414   9.343
34380W        W34861  12.946  14.493   7.639
34381W        W34862  11.092  13.000   7.336
34382W        W34863  11.827  13.411  10.462
34383W        W34864  11.348  12.578  10.093
34384W        W34865  12.339  12.683   9.887
34385W        W34866  14.107  11.042  10.149
34386W        W34867  14.505  12.652  10.140
34387W        W34868  14.493  12.852   7.826
34388W        W34869  13.356  13.184   7.925
34389W        W34870  13.830  14.484   7.620
34390W        W34871  13.007  12.474  10.762
34391W        W34872  11.337  13.441  10.802
34392W        W34873  14.543  11.363  10.754
34393W        W34874  14.261  12.291   9.375
34394W        W34875  12.569  14.421  10.852
34395W        W34876  12.424  11.050   7.579
34396W        W34877  13.963  13.649   7.522
34397W        W34878  11.732  11.742  10.408
34398W        W34879  12.166  13.736  10.270
34399W        W34880  14.292  11.727  10.068
34400W        W34881  13.503  14.386   8.036
34401W        W34882  13.742  13.005   9.403
34402W        W34883  11.992  11.421  10.070
34403W        W34884  12.461  12.490  10.827
34404W        W34885  11.964  13.669   8.021
34405W        W34886  13.719  13.167   8.285
34406W        W34887  11.487  11.793  10.009
34407W        W34888  12.816  13.855   8.473
34408W        W34889  14.566  12.415   8.654
34409W        W34890  12.788  11.048  10.373
34410W        W34891  13.568  13.753   9.452
34411W        W34892  13.871  14.097   9.160
34412W        W34893  13.090  13.899   7.588
34413W        W34894  11.100  13.791  10.430
34414W        W34895  11.843  11.783   9.668
34415W        W34896  11.813  11.131   8.778
34416W        W34897  13.434  11.973   9.470
34417W        W34898  12.232  13.144   7.670
34418W        W34899  14.230  13.086   9.169
34419W        W34900  11.557  13.844  10.592
34420W        W34901  13.944  14.526   8.389
34421W        W34902  12.043  11.546   8.834
34422W        W34903  11.812  13.039   8.924
34423W        W34904  12.125  14.450   9.674
34424W        W34905  14.192  14.546  10.706
34425W        W34906  13.351  12.734   9.639
34426W        W34907  11.200  12.532   7.554
34427W        W34908  14.334  14.190   8.251
34428W        W34909  14.171  11.514   7.870
34429W        W34910  12.310  11.033  10.273
34430W        W34911  14.016  13.835   8.731
34431W        W34912  14.045  12.391   8.636
34432W        W34913  12.162  12.064   8.852
34433W        W34914  12.407  12.326  10.176
34434W        W34915  13.518  13.479  10.039
34435W        W34916  12.168  11.933  10.151
34436W        W34917  12.147  14.399   8.767
34437W        W34918  11.464  14.358  10.401
34438W        W34919  11.576  13.719   7.531
34439W        W34920  14.093  13.477   8.341
34440W        W34921  11.697  12.269  10.227
34441W        W34922  14.470  12.199   7.708
34442W        W34923  12.215  13.256   8.179
34443W        W34924  13.314  12.638  10.260
34444W        W34925  13.205  12.266   9.804
34445W        W34926  11.765  12.638   9.833
34446W        W34927  13.975  14.526   9.662
34447W        W34928  13.766  11.160  10.656
34448W        W34929  11.430  11.310  10.243
34449W        W34930  11.769  12.333   9.296
34450W        W34931  12.138  12.147   7.418
34451W        W34932  10.941  13.906   9.963
34452W        W34933  12.526  12.615   9.406
34453W        W34934  12.349  11.640   7.511
34454W        W34935  11.484  12.456   8.292
34455W        W34936  11.255  14.308   9.729
34456W        W34937  14.050  12.534   7.837
34457W        W34938  14.145  11.450  10.523
34458W        W34939  13.581  13.659   8.486
34459W        W34940  11.179  12.583  10.663
34460W        W34941  14.145  11.047   7.959
34461W        W34942  13.665  13.522   7.970
34462W        W34943  12.567  12.580   8.055
34463W        W34944  13.754  11.384   7.578
34464W        W34945  13.819  11.991   9.764
34465W        W34946  11.528  12.584   8.971
34466W        W34947  11.822  13.523   8.620
34467W        W34948  13.585  12.143   8.585
34468W        W34949  12.608  11.522   9.281
34469W        W34950  14.570  13.433   9.792
34470W        W34951  14.488  11.420   9.353
34471W        W34952  11.027  14.250   8.729
34472W        W34953  11.536  13.437   8.265
34473W        W34954  11.451  11.054  10.818
34474W        W34955  12.570  13.907  10.920
34475W        W34956  14.325  12.875   8.710
34476W        W34957  13.679  13.052   7.590
34477W        W34958  12.974  14.573   9.802
34478W        W34959  13.831  13.295  10.839
34479W        W34960  12.646  11.005   8.119
34480W        W34961  13.359  11.874   8.978
34481W        W34962  11.045  13.461   9.310
34482W        W34963  12.102  12.907  10.800
34483W        W34964  13.096  11.888   8.514
34484W        W34965  13.301  13.298   9.636
34485W        W34966  11.455  13.903  10.071
34486W        W34967  12.046  13.886  10.794
34487W        W34968  11.897  11.683   7.808
34488W        W34969  13.414  11.825   8.133
34489W        W34970  13.372  13.933  10.370
34490W        W34971  12.057  12.525   8.969
34491W        W34972  11.712  14.223   9.834
34492W        W34973  14.457  14.340   7.435
34493W        W34974  11.320  13.012  10.431
34494W        W34975  13.315  13.274   9.119
34495W        W34976  11.751  12.923   8.361
34496W        W34977  12.122  13.930   9.756
34497W        W34978  12.500  11.349   8.797
34498W        W34979  11.111  13.333   7.727
34499W        W34980  12.630  12.284   7.597
34500W        W34981  11.276  12.833   8.616
34501W        W34982  12.566  11.475  10.080
34502W        W34983  14.238  11.184   7.507
34503W        W34984  12.985  14.187  10.758
34504W        W34985  14.543  13.281  10.280
34505W        W34986  13.951  14.079  10.891
34506W        W34987  11.690  14.535   9.369
34507W        W34988  14.549  13.157   8.243
34508W        W34989  13.079  12.424   8.756
34509W        W34990  12.846  11.036   8.646
34510W        W34991  11.905  14.020   8.483
34511W        W34992  12.404  11.761   9.708
34512W        W34993  12.104  11.130   9.177
34513W        W34994  11.167  13.952   7.725
34514W        W34995  12.983  13.316   8.443
34515W        W34996  11.858  14.111  10.322
34516W        W34997  11.335  12.934   8.018
34517W        W34998  11.220  11.477   9.017
34518W        W34999  12.768  13.442   9.074
34519W        W35000  11.020  11.296   8.094
34520W        W35001  13.684  12.502  10.021
34521W        W35002  13.561  11.888   7.593
34522W        W35003  14.078  13.560   9.241
34523W        W35004  12.739  14.044   9.072
34524W        W35005  12.151  14.148   7.983
34525W        W35006  13.433  11.051   7.413
34526W        W35007  11.233  14.311   9.154
34527W        W35008  13.430  12.069  10.789
34528W        W35009  11.413  11.599  10.788
34529W        W35010  11.144  12.199   8.121
34530W        W35011  11.835  12.188   7.846
34531W        W35012  13.598  12.515  10.663
34532W        W35013  11.941  12.796   9.372
34533W        W35014  13.415  11.082   8.492
34534W        W35015  12.546  14.513   8.995
34535W        W35016  13.344  14.124   9.043
34536W        W35017  13.363  13.104   8.637
34537W        W35018  12.825  11.329   7.708
34538W        W35019  14.506  10.957   8.430
34539W        W35020  12.194  12.592   7.593
34540W        W35021  14.360  11.929   8.583
34541W        W35022  13.052  13.099   7.460
34542W        W35023  13.988  13.299  10.208
34543W        W35024  13.642  14.000   7.675
34544W        W35025  12.257  11.675  10.581
34545W        W35026  12.077  12.259   9.822
34546W        W35027  14.169  13.754  10.099
34547W        W35028  13.269  11.704  10.476
34548W        W35029  11.113  12.175  10.253
34549W        W35030  12.873  12.652   9.979
34550W        W35031  11.230  13.410   8.636
34551W        W35032  11.377  12.707   9.526
34552W        W35033  13.694  12.993   9.876
34553W        W35034  13.466  14.373  10.687
34554W        W35035  13.362  12.112  10.240
34555W        W35036  13.639  14.166   8.645
34556W        W35037  12.641  13.886   9.968
34557W        W35038  12.126  14.241   9.237
34558W        W35039  13.931  13.412   9.656
34559W        W35040  12.981  13.484  10.793
34560W        W35041  11.586  13.437   9.132
34561W        W35042  13.932  13.196   8.777
34562W        W35043  13.573  14.262   9.528
34563W        W35044  11.551  13.991   9.398
34564W        W35045  12.572  12.043  10.608
34565W        W35046  13.023  14.209   8.119
34566W        W35047  12.331  13.464  10.757
34567W        W35048  12.457  13.702   8.134
34568W        W35049  11.678  12.442   7.393
34569W        W35050  11.017  14.528  14.292
34570W        W35051  11.393  13.421  13.815
34571W        W35052  14.098  13.151  11.585
34572W        W35053  14.228  14.236  13.612
34573W        W35054  12.146  14.227  11.138
34574W        W35055  12.229  12.379  12.121
34575W        W35056  11.744  12.227  12.285
34576W        W35057  12.735  13.042  11.719
34577W        W35058  12.410  14.134  14.074
34578W        W35059  11.059  11.695  14.037
34579W        W35060  11.821  10.975  13.839
34580W        W35061  13.164  12.234  11.296
34581W        W35062  13.734  11.668  14.387
34582W        W35063  11.100  11.460  13.512
34583W        W35064  11.199  14.079  14.533
34584W        W35065  12.721  13.469  11.265
34585W        W35066  11.153  12.252  12.958
34586W        W35067  12.046  12.143  14.195
34587W        W35068  14.505  12.002  12.694
34588W        W35069  14.269  13.045  13.553
34589W        W35070  12.577  12.378  12.580
34590W        W35071  13.123  13.717  12.949
34591W        W35072  11.623  13.151  13.181
34592W        W35073  10.982  12.679  12.752
34593W        W35074  12.018  12.651  13.944
34594W        W35075  14.289  12.434  14.198
34595W        W35076  11.905  13.878  12.643
34596W        W35077  13.026  13.567  13.777
34597W        W35078  12.246  12.207  13.002
34598W        W35079  12.538  12.991  12.645
34599W        W35080  13.535  13.764  14.493
34600W        W35081  12.595  12.800  13.981
34601W        W35082  11.004  12.191  14.503
34602W        W35083  13.836  13.726  14.102
34603W        W35084  11.417  11.308  12.100
34604W        W35085  11.944  13.566  13.099
34605W        W35086  14.407  13.349  12.389
34606W        W35087  13.820  11.749  12.956
34607W        W35088  14.105  11.702  11.051
34608W        W35089  14.570  12.503  13.357
34609W        W35090  12.537  14.210  13.110
34610W        W35091  14.311  13.676  11.548
34611W        W35092  11.440  14.462  11.302
34612W        W35093  11.833  14.508  11.978
34613W        W35094  11.630  11.262  13.404
34614W        W35095  14.253  12.280  13.679
34615W        W35096  13.658  12.702  12.138
34616W        W35097  13.624  12.390  11.165
34617W        W35098  12.832  13.534  13.305
34618W        W35099  12.638  11.864  12.504
34619W        W35100  13.238  13.951  13.498
34620W        W35101  14.109  12.742  11.920
34621W        W35102  13.011  11.400  11.936
34622W        W35103  11.668  14.094  11.619
34623W        W35104  11.039  11.593  12.218
34624W        W35105  13.825  12.200  12.692
34625W        W35106  11.283  13.817  12.607
34626W        W35107  12.624  14.167  11.477
34627W        W35108  14.016  12.193  10.941
34628W        W35109  11.039  13.951  13.105
34629W        W35110  11.830  13.523  13.585
34630W        W35111  12.203  12.883  12.204
34631W        W35112  12.225  11.288  13.297
34632W        W35113  14.454  11.050  12.594
34633W        W35114  11.673  12.922  11.062
34634W        W35115  11.328  11.955  11.241
34635W        W35116  11.390  13.911  12.035
34636W        W35117  12.521  13.394  12.283
34637W        W35118  13.853  14.253  13.997
34638W        W35119  12.779  11.895  11.681
34639W        W35120  14.162  14.293  12.453
34640W        W35121  13.839  12.146  14.051
34641W        W35122  13.179  13.094  13.669
34642W        W35123  10.945  12.645  11.875
34643W        W35124  12.056  13.060  13.448
34644W        W35125  13.260  12.324  11.826
34645W        W35126  13.137  12.814  11.930
34646W        W35127  11.480  12.234  13.404
34647W        W35128  11.465  12.110  14.326
34648W        W35129  11.355  11.027  12.485
34649W        W35130  13.123  11.374  13.046
34650W        W35131  12.771  11.559  14.209
34651W        W35132  13.126  11.708  11.387
34652W        W35133  14.309  14.101  14.141
34653W        W35134  13.276  11.182  14.180
34654W        W35135  14.295  13.483  14.302
34655W        W35136  13.725  11.650  13.898
34656W        W35137  13.525  11.588  12.168
34657W        W35138  13.918  12.722  14.572
34658W        W35139  11.658  14.298  12.558
34659W        W35140  12.316  12.015  11.544
34660W        W35141  11.885  11.299  14.208
34661W        W35142  13.937  11.783  11.889
34662W        W35143  14.304  12.265  11.834
34663W        W35144  12.047  14.482  14.305
34664W        W35145  11.973  11.018  11.540
34665W        W35146  14.294  11.552  12.575
34666W        W35147  14.444  13.801  11.020
34667W        W35148  11.351  13.004  12.722
34668W        W35149  13.268  11.591  10.952
34669W        W35150  14.402  13.923  12.672
34670W        W35151  14.441  11.117  13.422
34671W        W35152  12.886  12.329  13.976
34672W        W35153  12.979  13.668  11.679
34673W        W35154  13.379  12.962  14.419
34674W        W35155  13.053  10.939  12.728
34675W        W35156  11.665  11.842  12.791
34676W        W35157  11.219  13.042  13.565
34677W        W35158  13.078  14.235  12.271
34678W        W35159  14.272  11.832  13.143
34679W        W35160  12.909  14.179  13.910
34680W        W35161  14.252  13.238  11.115
34681W        W35162  12.687  12.721  12.176
34682W        W35163  14.539  11.232  13.917
34683W        W35164  12.688  13.067  13.511
34684W        W35165  12.905  11.953  12.956
34685W        W35166  13.757  12.251  11.794
34686W        W35167  14.044  11.984  11.436
34687W        W35168  13.853  14.024  11.825
34688W        W35169  13.687  13.627  12.621
34689W        W35170  13.583  12.706  11.599
34690W        W35171  13.016  12.916  12.585
34691W        W35172  13.897  12.704  12.652
34692W        W35173  11.272  11.719  13.076
34693W        W35174  14.050  12.771  13.903
34694W        W35175  14.401  14.389  13.049
34695W        W35176  12.331  13.833  12.451
34696W        W35177  13.338  14.366  13.775
34697W        W35178  13.332  11.696  13.539
34698W        W35179  12.539  14.404  13.600
34699W        W35180  14.236  11.358  12.066
34700W        W35181  14.027  12.677  13.367
34701W        W35182  11.010  11.998  13.405
34702W        W35183  13.870  11.793  12.423
34703W        W35184  14.281  11.944  14.200
34704W        W35185  13.166  13.643  12.418
34705W        W35186  12.422  14.234  12.031
34706W        W35187  11.537  11.414  11.289
34707W        W35188  12.641  11.068  13.099
34708W        W35189  11.669  14.188  10.947
34709W        W35190  12.043  12.654  11.698
34710W        W35191  12.697  13.283  14.011
34711W        W35192  12.527  11.641  12.001
34712W        W35193  13.883  11.238  12.429
34713W        W35194  13.603  14.520  12.757
34714W        W35195  13.015  14.168  13.097
34715W        W35196  12.411  13.205  13.058
34716W        W35197  14.181  13.928  13.184
34717W        W35198  11.875  11.431  11.953
34718W        W35199  12.397  13.728  12.913
34719W        W35200  11.880  11.659  10.978
34720W        W35201  12.681  12.268  13.372
34721W        W35202  13.529  11.134  13.242
34722W        W35203  10.949  12.977  13.127
34723W        W35204  12.653  12.795  11.285
34724W        W35205  11.921  11.110  11.055
34725W        W35206  12.659  12.191  12.106
34726W        W35207  13.629  11.167  13.805
34727W        W35208  12.217  13.179  13.914
34728W        W35209  13.021  12.961  14.131
34729W        W35210  13.638  12.991  14.024
34730W        W35211  12.922  11.131  14.529
34731W        W35212  12.144  11.747  12.922
34732W        W35213  11.570  11.703  12.320
34733W        W35214  11.356  14.415  11.996
34734W        W35215  12.688  13.745  14.121
34735W        W35216  11.723  13.230  11.480
34736W        W35217  13.403  12.615  12.701
34737W        W35218  13.683  12.414  13.100
34738W        W35219  12.888  13.088  13.034
34739W        W35220  13.358  13.462  11.166
34740W        W35221  13.030  11.483  12.494
34741W        W35222  14.509  11.761  11.762
34742W        W35223  11.003  14.350  13.793
34743W        W35224  11.420  13.576  13.325
34744W        W35225  10.987  14.422  11.557
34745W        W35226  12.886  11.692  13.363
34746W        W35227  12.249  13.715  11.212
34747W        W35228  14.154  14.097  11.398
34748W        W35229  13.129  12.750  11.412
34749W        W35230  11.972  11.941  11.929
34750W        W35231  12.804  11.851  10.981
34751W        W35232  13.388  13.416  14.159
34752W        W35233  13.741  11.322  11.776
34753W        W35234  11.071  11.170  11.224
34754W        W35235  12.357  13.489  13.514
34755W        W35236  12.156  13.405  12.606
34756W        W35237  11.898  13.357  11.004
34757W        W35238  11.139  13.598  11.772
34758W        W35239  11.643  12.668  14.214
34759W        W35240  12.347  11.228  14.400
34760W        W35241  13.056  11.370  13.756
34761W        W35242  12.251  11.138  12.037
34762W        W35243  13.310  11.215  11.542
34763W        W35244  11.255  11.147  13.119
34764W        W35245  11.303  12.110  12.489
34765W        W35246  13.992  11.218  12.895
34766W        W35247  11.414  11.716  11.709
34767W        W35248  13.985  11.404  13.325
34768W        W35249  14.381  12.607  11.010
34769W        W35250  11.673  11.365  12.829
34770W        W35251  12.787  11.937  13.769
34771W        W35252  10.935  11.627  11.247
34772W        W35253  11.721  13.016  13.808
34773W        W35254  13.079  12.414  12.987
34774W        W35255  12.946  14.493  11.283
34775W        W35256  11.092  13.000  10.980
34776W        W35257  11.827  13.411  14.106
34777W        W35258  11.348  12.578  13.737
34778W        W35259  12.339  12.683  13.531
34779W        W35260  14.107  11.042  13.793
34780W        W35261  14.505  12.652  13.784
34781W        W35262  14.493  12.852  11.470
34782W        W35263  13.356  13.184  11.569
34783W        W35264  13.830  14.484  11.264
34784W        W35265  13.007  12.474  14.406
34785W        W35266  11.337  13.441  14.446
34786W        W35267  14.543  11.363  14.398
34787W        W35268  14.261  12.291  13.019
34788W        W35269  12.569  14.421  14.496
34789W        W35270  12.424  11.050  11.223
34790W        W35271  13.963  13.649  11.166
34791W        W35272  11.732  11.742  14.052
34792W        W35273  12.166  13.736  13.914
34793W        W35274  14.292  11.727  13.712
34794W        W35275  13.503  14.386  11.680
34795W        W35276  13.742  13.005  13.047
34796W        W35277  11.992  11.421  13.714
34797W        W35278  12.461  12.490  14.471
34798W        W35279  11.964  13.669  11.665
34799W        W35280  13.719  13.167  11.929
34800W        W35281  11.487  11.793  13.653
34801W        W35282  12.816  13.855  12.117
34802W        W35283  14.566  12.415  12.298
34803W        W35284  12.788  11.048  14.017
34804W        W35285  13.568  13.753  13.096
34805W        W35286  13.871  14.097  12.804
34806W        W35287  13.090  13.899  11.232
34807W        W35288  11.100  13.791  14.074
34808W        W35289  11.843  11.783  13.312
34809W        W35290  11.813  11.131  12.422
34810W        W35291  13.434  11.973  13.114
34811W        W35292  12.232  13.144  11.314
34812W        W35293  14.230  13.086  12.813
34813W        W35294  11.557  13.844  14.236
34814W        W35295  13.944  14.526  12.033
34815W        W35296  12.043  11.546  12.478
34816W        W35297  11.812  13.039  12.568
34817W        W35298  12.125  14.450  13.318
34818W        W35299  14.192  14.546  14.350
34819W        W35300  13.351  12.734  13.283
34820W        W35301  11.200  12.532  11.198
34821W        W35302  14.334  14.190  11.895
34822W        W35303  14.171  11.514  11.514
34823W        W35304  12.310  11.033  13.917
34824W        W35305  14.016  13.835  12.375
34825W        W35306  14.045  12.391  12.280
34826W        W35307  12.162  12.064  12.496
34827W        W35308  12.407  12.326  13.820
34828W        W35309  13.518  13.479  13.683
34829W        W35310  12.168  11.933  13.795
34830W        W35311  12.147  14.399  12.411
34831W        W35312  11.464  14.358  14.045
34832W        W35313  11.576  13.719  11.175
34833W        W35314  14.093  13.477  11.985
34834W        W35315  11.697  12.269  13.871
34835W        W35316  14.470  12.199  11.352
34836W        W35317  12.215  13.256  11.823
34837W        W35318  13.314  12.638  13.904
34838W        W35319  13.205  12.266  13.448
34839W        W35320  11.765  12.638  13.477
34840W        W35321  13.975  14.526  13.306
34841W        W35322  13.766  11.160  14.300
34842W        W35323  11.430  11.310  13.887
34843W        W35324  11.769  12.333  12.940
34844W        W35325  12.138  12.147  11.062
34845W        W35326  10.941  13.906  13.607
34846W        W35327  12.526  12.615  13.050
34847W        W35328  12.349  11.640  11.155
34848W        W35329  11.484  12.456  11.936
34849W        W35330  11.255  14.308  13.373
34850W        W35331  14.050  12.534  11.481
34851W        W35332  14.145  11.450  14.167
34852W        W35333  13.581  13.659  12.130
34853W        W35334  11.179  12.583  14.307
34854W        W35335  14.145  11.047  11.603
34855W        W35336  13.665  13.522  11.614
34856W        W35337  12.567  12.580  11.699
34857W        W35338  13.754  11.384  11.222
34858W        W35339  13.819  11.991  13.408
34859W        W35340  11.528  12.584  12.615
34860W        W35341  11.822  13.523  12.264
34861W        W35342  13.585  12.143  12.229
34862W        W35343  12.608  11.522  12.925
34863W        W35344  14.570  13.433  13.436
34864W        W35345  14.488  11.420  12.997
34865W        W35346  11.027  14.250  12.373
34866W        W35347  11.536  13.437  11.909
34867W        W35348  11.451  11.054  14.462
34868W        W35349  12.570  13.907  14.564
34869W        W35350  14.325  12.875  12.354
34870W        W35351  13.679  13.052  11.234
34871W        W35352  12.974  14.573  13.446
34872W        W35353  13.831  13.295  14.483
34873W        W35354  12.646  11.005  11.763
34874W        W35355  13.359  11.874  12.622
34875W        W35356  11.045  13.461  12.954
34876W        W35357  12.298  11.423  11.595
34877W        W35358  12.102  12.907  14.444
34878W        W35359  13.096  11.888  12.158
34879W        W35360  13.301  13.298  13.280
34880W        W35361  12.046  13.886  14.438
34881W        W35362  11.897  11.683  11.452
34882W        W35363  13.414  11.825  11.777
34883W        W35364  13.372  13.933  14.014
34884W        W35365  12.057  12.525  12.613
34885W        W35366  11.712  14.223  13.478
34886W        W35367  14.457  14.340  11.079
34887W        W35368  11.320  13.012  14.075
34888W        W35369  13.315  13.274  12.763
34889W        W35370  11.751  12.923  12.005
34890W        W35371  12.122  13.930  13.400
34891W        W35372  12.500  11.349  12.441
34892W        W35373  11.111  13.333  11.371
34893W        W35374  12.630  12.284  11.241
34894W        W35375  11.276  12.833  12.260
34895W        W35376  12.566  11.475  13.724
34896W        W35377  14.238  11.184  11.151
34897W        W35378  14.331  12.930  14.250
34898W        W35379  12.985  14.187  14.402
34899W        W35380  14.543  13.281  13.924
34900W        W35381  13.951  14.079  14.535
34901W        W35382  11.690  14.535  13.013
34902W        W35383  14.549  13.157  11.887
34903W        W35384  13.079  12.424  12.400
34904W        W35385  12.846  11.036  12.290
34905W        W35386  11.905  14.020  12.127
34906W        W35387  12.404  11.761  13.352
34907W        W35388  12.104  11.130  12.821
34908W        W35389  11.167  13.952  11.369
34909W        W35390  12.983  13.316  12.087
34910W        W35391  11.858  14.111  13.966
34911W        W35392  11.335  12.934  11.662
34912W        W35393  11.220  11.477  12.661
34913W        W35394  12.768  13.442  12.718
34914W        W35395  11.020  11.296  11.738
34915W        W35396  13.684  12.502  13.665
34916W        W35397  13.561  11.888  11.237
34917W        W35398  14.078  13.560  12.885
34918W        W35399  12.739  14.044  12.716
34919W        W35400  12.151  14.148  11.627
34920W        W35401  13.433  11.051  11.057
34921W        W35402  11.233  14.311  12.798
34922W        W35403  13.430  12.069  14.433
34923W        W35404  11.413  11.599  14.432
34924W        W35405  11.144  12.199  11.765
34925W        W35406  11.835  12.188  11.490
34926W        W35407  13.598  12.515  14.307
34927W        W35408  11.941  12.796  13.016
34928W        W35409  13.415  11.082  12.136
34929W        W35410  12.546  14.513  12.639
34930W        W35411  13.760  13.975  13.576
34931W        W35412  13.344  14.124  12.687
34932W        W35413  13.363  13.104  12.281
34933W        W35414  12.825  11.329  11.352
34934W        W35415  14.506  10.957  12.074
34935W        W35416  12.194  12.592  11.237
34936W        W35417  14.360  11.929  12.227
34937W        W35418  13.052  13.099  11.104
34938W        W35419  13.988  13.299  13.852
34939W        W35420  13.642  14.000  11.319
34940W        W35421  12.257  11.675  14.225
34941W        W35422  12.077  12.259  13.466
34942W        W35423  14.169  13.754  13.743
34943W        W35424  13.269  11.704  14.120
34944W        W35425  11.113  12.175  13.897
34945W        W35426  12.873  12.652  13.623
34946W        W35427  11.230  13.410  12.280
34947W        W35428  11.377  12.707  13.170
34948W        W35429  13.694  12.993  13.520
34949W        W35430  13.466  14.373  14.331
34950W        W35431  13.362  12.112  13.884
34951W        W35432  13.639  14.166  12.289
34952W        W35433  12.641  13.886  13.612
34953W        W35434  12.126  14.241  12.881
34954W        W35435  13.931  13.412  13.300
34955W        W35436  12.981  13.484  14.437
34956W        W35437  11.586  13.437  12.776
34957W        W35438  13.932  13.196  12.421
34958W        W35439  13.573  14.262  13.172
34959W        W35440  11.551  13.991  13.042
34960W        W35441  12.572  12.043  14.252
34961W        W35442  13.023  14.209  11.763
34962W        W35443  12.331  13.464  14.401
34963W        W35444  12.457  13.702  11.778
34964W        W35445  11.678  12.442  11.037
34965W        W35446  11.393  13.421  17.459
34966W        W35447  14.098  13.151  15.229
34967W        W35448  14.228  14.236  17.256
34968W        W35449  12.146  14.227  14.782
34969W        W35450  12.229  12.379  15.765
34970W        W35451  12.735  13.042  15.363
34971W        W35452  12.410  14.134  17.718
34972W        W35453  11.059  11.695  17.681
34973W        W35454  11.821  10.975  17.483
34974W        W35455  13.515  11.363  16.370
34975W        W35456  13.164  12.234  14.940
34976W        W35457  11.100  11.460  17.156
34977W        W35458  12.721  13.469  14.909
34978W        W35459  11.153  12.252  16.602
34979W        W35460  14.505  12.002  16.338
34980W        W35461  14.269  13.045  17.197
34981W        W35462  12.577  12.378  16.224
34982W        W35463  13.123  13.717  16.593
34983W        W35464  11.623  13.151  16.825
34984W        W35465  10.982  12.679  16.396
34985W        W35466  12.018  12.651  17.588
34986W        W35467  11.905  13.878  16.287
34987W        W35468  13.026  13.567  17.421
34988W        W35469  12.246  12.207  16.646
34989W        W35470  12.538  12.991  16.289
34990W        W35471  13.836  13.726  17.746
34991W        W35472  11.417  11.308  15.744
34992W        W35473  11.944  13.566  16.743
34993W        W35474  14.407  13.349  16.033
34994W        W35475  13.820  11.749  16.600
34995W        W35476  14.105  11.702  14.695
34996W        W35477  14.570  12.503  17.001
34997W        W35478  12.537  14.210  16.754
34998W        W35479  14.311  13.676  15.192
34999W        W35480  11.440  14.462  14.946
35000W        W35481  11.833  14.508  15.622
35001W        W35482  11.630  11.262  17.048
35002W        W35483  14.253  12.280  17.323
35003W        W35484  13.658  12.702  15.782
35004W        W35485  13.624  12.390  14.809
35005W        W35486  12.832  13.534  16.949
35006W        W35487  12.638  11.864  16.148
35007W        W35488  13.238  13.951  17.142
35008W        W35489  14.109  12.742  15.564
35009W        W35490  13.011  11.400  15.580
35010W        W35491  11.668  14.094  15.263
35011W        W35492  11.039  11.593  15.862
35012W        W35493  13.825  12.200  16.336
35013W        W35494  11.283  13.817  16.251
35014W        W35495  12.624  14.167  15.121
35015W        W35496  14.016  12.193  14.585
35016W        W35497  11.039  13.951  16.749
35017W        W35498  11.830  13.523  17.229
35018W        W35499  12.203  12.883  15.848
35019W        W35500  12.225  11.288  16.941
35020W        W35501  14.454  11.050  16.238
35021W        W35502  11.673  12.922  14.706
35022W        W35503  11.390  13.911  15.679
35023W        W35504  12.521  13.394  15.927
35024W        W35505  13.853  14.253  17.641
35025W        W35506  12.779  11.895  15.325
35026W        W35507  14.162  14.293  16.097
35027W        W35508  14.552  13.802  15.829
35028W        W35509  13.179  13.094  17.313
35029W        W35510  10.945  12.645  15.519
35030W        W35511  12.056  13.060  17.092
35031W        W35512  13.260  12.324  15.470
35032W        W35513  13.137  12.814  15.574
35033W        W35514  11.480  12.234  17.048
35034W        W35515  11.355  11.027  16.129
35035W        W35516  13.123  11.374  16.690
35036W        W35517  13.126  11.708  15.031
35037W        W35518  14.309  14.101  17.785
35038W        W35519  13.276  11.182  17.824
35039W        W35520  13.725  11.650  17.542
35040W        W35521  13.525  11.588  15.812
35041W        W35522  11.658  14.298  16.202
35042W        W35523  12.316  12.015  15.188
35043W        W35524  13.937  11.783  15.533
35044W        W35525  14.304  12.265  15.478
35045W        W35526  11.973  11.018  15.184
35046W        W35527  14.294  11.552  16.219
35047W        W35528  11.351  13.004  16.366
35048W        W35529  13.268  11.591  14.596
35049W        W35530  14.402  13.923  16.316
35050W        W35531  14.441  11.117  17.066
35051W        W35532  12.886  12.329  17.620
35052W        W35533  12.979  13.668  15.323
35053W        W35534  13.053  10.939  16.372
35054W        W35535  11.665  11.842  16.435
35055W        W35536  11.219  13.042  17.209
35056W        W35537  13.078  14.235  15.915
35057W        W35538  14.272  11.832  16.787
35058W        W35539  12.909  14.179  17.554
35059W        W35540  14.252  13.238  14.759
35060W        W35541  12.687  12.721  15.820
35061W        W35542  14.539  11.232  17.561
35062W        W35543  12.688  13.067  17.155
35063W        W35544  12.905  11.953  16.600
35064W        W35545  13.757  12.251  15.438
35065W        W35546  14.044  11.984  15.080
35066W        W35547  13.853  14.024  15.469
35067W        W35548  13.687  13.627  16.265
35068W        W35549  13.583  12.706  15.243
35069W        W35550  13.016  12.916  16.229
35070W        W35551  13.897  12.704  16.296
35071W        W35552  11.272  11.719  16.720
35072W        W35553  14.050  12.771  17.547
35073W        W35554  14.401  14.389  16.693
35074W        W35555  12.331  13.833  16.095
35075W        W35556  13.338  14.366  17.419
35076W        W35557  13.332  11.696  17.183
35077W        W35558  12.539  14.404  17.244
35078W        W35559  14.236  11.358  15.710
35079W        W35560  14.027  12.677  17.011
35080W        W35561  11.010  11.998  17.049
35081W        W35562  13.870  11.793  16.067
35082W        W35563  13.166  13.643  16.062
35083W        W35564  12.422  14.234  15.675
35084W        W35565  11.537  11.414  14.933
35085W        W35566  12.641  11.068  16.743
35086W        W35567  11.669  14.188  14.591
35087W        W35568  12.043  12.654  15.342
35088W        W35569  12.697  13.283  17.655
35089W        W35570  12.527  11.641  15.645
35090W        W35571  13.883  11.238  16.073
35091W        W35572  13.603  14.520  16.401
35092W        W35573  13.015  14.168  16.741
35093W        W35574  12.411  13.205  16.702
35094W        W35575  14.181  13.928  16.828
35095W        W35576  11.875  11.431  15.597
35096W        W35577  12.397  13.728  16.557
35097W        W35578  11.880  11.659  14.622
35098W        W35579  12.681  12.268  17.016
35099W        W35580  13.529  11.134  16.886
35100W        W35581  10.949  12.977  16.771
35101W        W35582  12.653  12.795  14.929
35102W        W35583  11.921  11.110  14.699
35103W        W35584  12.659  12.191  15.750
35104W        W35585  13.629  11.167  17.449
35105W        W35586  12.217  13.179  17.558
35106W        W35587  13.638  12.991  17.668
35107W        W35588  12.144  11.747  16.566
35108W        W35589  11.570  11.703  15.964
35109W        W35590  11.356  14.415  15.640
35110W        W35591  12.688  13.745  17.765
35111W        W35592  11.723  13.230  15.124
35112W        W35593  13.403  12.615  16.345
35113W        W35594  13.683  12.414  16.744
35114W        W35595  12.888  13.088  16.678
35115W        W35596  13.358  13.462  14.810
35116W        W35597  13.030  11.483  16.138
35117W        W35598  14.509  11.761  15.406
35118W        W35599  11.003  14.350  17.437
35119W        W35600  11.420  13.576  16.969
35120W        W35601  10.987  14.422  15.201
35121W        W35602  12.886  11.692  17.007
35122W        W35603  12.249  13.715  14.856
35123W        W35604  14.154  14.097  15.042
35124W        W35605  13.129  12.750  15.056
35125W        W35606  11.972  11.941  15.573
35126W        W35607  12.804  11.851  14.625
35127W        W35608  13.741  11.322  15.420
35128W        W35609  11.071  11.170  14.868
35129W        W35610  12.357  13.489  17.158
35130W        W35611  12.156  13.405  16.250
35131W        W35612  11.898  13.357  14.648
35132W        W35613  11.139  13.598  15.416
35133W        W35614  13.056  11.370  17.400
35134W        W35615  12.251  11.138  15.681
35135W        W35616  13.310  11.215  15.186
35136W        W35617  11.255  11.147  16.763
35137W        W35618  11.303  12.110  16.133
35138W        W35619  13.992  11.218  16.539
35139W        W35620  11.414  11.716  15.353
35140W        W35621  13.985  11.404  16.969
35141W        W35622  14.381  12.607  14.654
35142W        W35623  11.673  11.365  16.473
35143W        W35624  12.787  11.937  17.413
35144W        W35625  10.935  11.627  14.891
35145W        W35626  11.721  13.016  17.452
35146W        W35627  13.079  12.414  16.631
35147W        W35628  12.946  14.493  14.927
35148W        W35629  11.092  13.000  14.624
35149W        W35630  11.348  12.578  17.381
35150W        W35631  12.339  12.683  17.175
35151W        W35632  14.107  11.042  17.437
35152W        W35633  14.505  12.652  17.428
35153W        W35634  14.493  12.852  15.114
35154W        W35635  13.830  14.484  14.908
35155W        W35636  14.261  12.291  16.663
35156W        W35637  12.424  11.050  14.867
35157W        W35638  13.963  13.649  14.810
35158W        W35639  12.166  13.736  17.558
35159W        W35640  14.292  11.727  17.356
35160W        W35641  13.742  13.005  16.691
35161W        W35642  11.992  11.421  17.358
35162W        W35643  11.964  13.669  15.309
35163W        W35644  13.719  13.167  15.573
35164W        W35645  11.487  11.793  17.297
35165W        W35646  12.816  13.855  15.761
35166W        W35647  14.566  12.415  15.942
35167W        W35648  12.788  11.048  17.661
35168W        W35649  13.568  13.753  16.740
35169W        W35650  13.871  14.097  16.448
35170W        W35651  13.090  13.899  14.876
35171W        W35652  11.100  13.791  17.718
35172W        W35653  11.843  11.783  16.956
35173W        W35654  11.813  11.131  16.066
35174W        W35655  13.434  11.973  16.758
35175W        W35656  12.232  13.144  14.958
35176W        W35657  14.230  13.086  16.457
35177W        W35658  13.944  14.526  15.677
35178W        W35659  12.043  11.546  16.122
35179W        W35660  11.812  13.039  16.212
35180W        W35661  12.125  14.450  16.962
35181W        W35662  13.351  12.734  16.927
35182W        W35663  11.200  12.532  14.842
35183W        W35664  14.334  14.190  15.539
35184W        W35665  14.171  11.514  15.158
35185W        W35666  12.310  11.033  17.561
35186W        W35667  14.016  13.835  16.019
35187W        W35668  14.045  12.391  15.924
35188W        W35669  12.162  12.064  16.140
35189W        W35670  12.407  12.326  17.464
35190W        W35671  13.518  13.479  17.327
35191W        W35672  12.168  11.933  17.439
35192W        W35673  12.147  14.399  16.055
35193W        W35674  11.576  13.719  14.819
35194W        W35675  14.093  13.477  15.629
35195W        W35676  11.697  12.269  17.515
35196W        W35677  12.215  13.256  15.467
35197W        W35678  13.314  12.638  17.548
35198W        W35679  13.205  12.266  17.092
35199W        W35680  11.765  12.638  17.121
35200W        W35681  13.975  14.526  16.950
35201W        W35682  11.430  11.310  17.531
35202W        W35683  11.769  12.333  16.584
35203W        W35684  12.138  12.147  14.706
35204W        W35685  10.941  13.906  17.251
35205W        W35686  12.526  12.615  16.694
35206W        W35687  12.349  11.640  14.799
35207W        W35688  11.484  12.456  15.580
35208W        W35689  11.255  14.308  17.017
35209W        W35690  14.050  12.534  15.125
35210W        W35691  13.581  13.659  15.774
35211W        W35692  14.145  11.047  15.247
35212W        W35693  13.665  13.522  15.258
35213W        W35694  12.567  12.580  15.343
35214W        W35695  13.754  11.384  14.866
35215W        W35696  13.819  11.991  17.052
35216W        W35697  11.528  12.584  16.259
35217W        W35698  11.822  13.523  15.908
35218W        W35699  13.585  12.143  15.873
35219W        W35700  12.608  11.522  16.569
35220W        W35701  14.570  13.433  17.080
35221W        W35702  14.488  11.420  16.641
35222W        W35703  11.027  14.250  16.017
35223W        W35704  11.536  13.437  15.553
35224W        W35705  14.325  12.875  15.998
35225W        W35706  13.679  13.052  14.878
35226W        W35707  12.974  14.573  17.090
35227W        W35708  12.646  11.005  15.407
35228W        W35709  13.359  11.874  16.266
35229W        W35710  11.045  13.461  16.598
35230W        W35711  12.298  11.423  15.239
35231W        W35712  13.096  11.888  15.802
35232W        W35713  13.301  13.298  16.924
35233W        W35714  11.455  13.903  17.359
35234W        W35715  11.897  11.683  15.096
35235W        W35716  13.414  11.825  15.421
35236W        W35717  13.372  13.933  17.658
35237W        W35718  12.057  12.525  16.257
35238W        W35719  11.712  14.223  17.122
35239W        W35720  14.457  14.340  14.723
35240W        W35721  13.315  13.274  16.407
35241W        W35722  11.751  12.923  15.649
35242W        W35723  12.122  13.930  17.044
35243W        W35724  12.500  11.349  16.085
35244W        W35725  11.111  13.333  15.015
35245W        W35726  12.630  12.284  14.885
35246W        W35727  11.276  12.833  15.904
35247W        W35728  12.566  11.475  17.368
35248W        W35729  14.238  11.184  14.795
35249W        W35730  14.543  13.281  17.568
35250W        W35731  11.690  14.535  16.657
35251W        W35732  14.549  13.157  15.531
35252W        W35733  13.079  12.424  16.044
35253W        W35734  12.846  11.036  15.934
35254W        W35735  11.905  14.020  15.771
35255W        W35736  12.404  11.761  16.996
35256W        W35737  12.104  11.130  16.465
35257W        W35738  11.167  13.952  15.013
35258W        W35739  12.983  13.316  15.731
35259W        W35740  11.858  14.111  17.610
35260W        W35741  11.335  12.934  15.306
35261W        W35742  11.220  11.477  16.305
35262W        W35743  12.768  13.442  16.362
35263W        W35744  11.020  11.296  15.382
35264W        W35745  13.684  12.502  17.309
35265W        W35746  13.561  11.888  14.881
35266W        W35747  14.078  13.560  16.529
35267W        W35748  12.739  14.044  16.360
35268W        W35749  12.151  14.148  15.271
35269W        W35750  13.433  11.051  14.701
35270W        W35751  11.233  14.311  16.442
35271W        W35752  11.144  12.199  15.409
35272W        W35753  11.835  12.188  15.134
35273W        W35754  11.941  12.796  16.660
35274W        W35755  13.415  11.082  15.780
35275W        W35756  12.546  14.513  16.283
35276W        W35757  13.760  13.975  17.220
35277W        W35758  13.344  14.124  16.331
35278W        W35759  13.363  13.104  15.925
35279W        W35760  12.825  11.329  14.996
35280W        W35761  14.506  10.957  15.718
35281W        W35762  12.194  12.592  14.881
35282W        W35763  14.360  11.929  15.871
35283W        W35764  13.052  13.099  14.748
35284W        W35765  13.988  13.299  17.496
35285W        W35766  13.642  14.000  14.963
35286W        W35767  12.077  12.259  17.110
35287W        W35768  14.169  13.754  17.387
35288W        W35769  11.113  12.175  17.541
35289W        W35770  12.873  12.652  17.267
35290W        W35771  11.230  13.410  15.924
35291W        W35772  11.377  12.707  16.814
35292W        W35773  13.694  12.993  17.164
35293W        W35774  13.466  14.373  17.975
35294W        W35775  13.639  14.166  15.933
35295W        W35776  12.641  13.886  17.256
35296W        W35777  12.126  14.241  16.525
35297W        W35778  13.931  13.412  16.944
35298W        W35779  11.586  13.437  16.420
35299W        W35780  13.932  13.196  16.065
35300W        W35781  13.573  14.262  16.816
35301W        W35782  11.551  13.991  16.686
35302W        W35783  13.023  14.209  15.407
35303W        W35784  12.457  13.702  15.422
35304W        W35785  11.678  12.442  14.681
35305W        W35786  11.393  17.065   2.882
35306W        W35787  14.098  16.795   0.652
35307W        W35788  12.229  16.023   1.188
35308W        W35789  11.744  15.871   1.352
35309W        W35790  12.735  16.686   0.786
35310W        W35791  11.059  15.339   3.104
35311W        W35792  11.821  14.619   2.906
35312W        W35793  13.515  15.007   1.793
35313W        W35794  13.164  15.878   0.363
35314W        W35795  13.734  15.312   3.454
35315W        W35796  11.100  15.104   2.579
35316W        W35797  11.199  17.723   3.600
35317W        W35798  12.721  17.113   0.332
35318W        W35799  11.153  15.896   2.025
35319W        W35800  12.046  15.787   3.262
35320W        W35801  14.505  15.646   1.761
35321W        W35802  14.269  16.689   2.620
35322W        W35803  12.577  16.022   1.647
35323W        W35804  13.123  17.361   2.016
35324W        W35805  11.623  16.795   2.248
35325W        W35806  10.982  16.323   1.819
35326W        W35807  12.018  16.295   3.011
35327W        W35808  14.289  16.078   3.265
35328W        W35809  11.905  17.522   1.710
35329W        W35810  13.026  17.211   2.844
35330W        W35811  12.246  15.851   2.069
35331W        W35812  12.538  16.635   1.712
35332W        W35813  13.535  17.408   3.560
35333W        W35814  12.614  16.728   3.570
35334W        W35815  12.595  16.444   3.048
35335W        W35816  13.836  17.370   3.169
35336W        W35817  11.417  14.952   1.167
35337W        W35818  11.944  17.210   2.166
35338W        W35819  14.407  16.993   1.456
35339W        W35820  13.820  15.393   2.023
35340W        W35821  14.105  15.346   0.118
35341W        W35822  14.570  16.147   2.424
35342W        W35823  14.311  17.320   0.615
35343W        W35824  11.630  14.906   2.471
35344W        W35825  14.253  15.924   2.746
35345W        W35826  13.658  16.346   1.205
35346W        W35827  13.624  16.034   0.232
35347W        W35828  12.832  17.178   2.372
35348W        W35829  12.638  15.508   1.571
35349W        W35830  13.238  17.595   2.565
35350W        W35831  14.109  16.386   0.987
35351W        W35832  13.011  15.044   1.003
35352W        W35833  11.668  17.738   0.686
35353W        W35834  11.039  15.237   1.285
35354W        W35835  13.825  15.844   1.759
35355W        W35836  11.283  17.461   1.674
35356W        W35837  14.016  15.837   0.008
35357W        W35838  11.039  17.595   2.172
35358W        W35839  11.830  17.167   2.652
35359W        W35840  12.203  16.527   1.271
35360W        W35841  12.225  14.932   2.364
35361W        W35842  14.454  14.694   1.661
35362W        W35843  11.673  16.566   0.129
35363W        W35844  11.328  15.599   0.308
35364W        W35845  11.390  17.555   1.102
35365W        W35846  12.521  17.038   1.350
35366W        W35847  12.779  15.539   0.748
35367W        W35848  13.839  15.790   3.118
35368W        W35849  14.552  17.446   1.252
35369W        W35850  13.179  16.738   2.736
35370W        W35851  10.945  16.289   0.942
35371W        W35852  12.056  16.704   2.515
35372W        W35853  13.260  15.968   0.893
35373W        W35854  13.137  16.458   0.997
35374W        W35855  11.480  15.878   2.471
35375W        W35856  11.465  15.754   3.393
35376W        W35857  11.355  14.671   1.552
35377W        W35858  13.123  15.018   2.113
35378W        W35859  12.771  15.203   3.276
35379W        W35860  13.126  15.352   0.454
35380W        W35861  14.309  17.745   3.208
35381W        W35862  13.276  14.826   3.247
35382W        W35863  14.295  17.127   3.369
35383W        W35864  13.725  15.294   2.965
35384W        W35865  13.525  15.232   1.235
35385W        W35866  13.918  16.366   3.639
35386W        W35867  12.316  15.659   0.611
35387W        W35868  11.885  14.943   3.275
35388W        W35869  14.304  15.909   0.901
35389W        W35870  11.973  14.662   0.607
35390W        W35871  14.294  15.196   1.642
35391W        W35872  14.444  17.445   0.087
35392W        W35873  11.351  16.648   1.789
35393W        W35874  13.268  15.235   0.019
35394W        W35875  14.402  17.567   1.739
35395W        W35876  14.441  14.761   2.489
35396W        W35877  12.886  15.973   3.043
35397W        W35878  12.979  17.312   0.746
35398W        W35879  13.379  16.606   3.486
35399W        W35880  13.053  14.583   1.795
35400W        W35881  11.665  15.486   1.858
35401W        W35882  11.219  16.686   2.632
35402W        W35883  14.272  15.476   2.210
35403W        W35884  14.252  16.882   0.182
35404W        W35885  12.687  16.365   1.243
35405W        W35886  14.539  14.876   2.984
35406W        W35887  12.688  16.711   2.578
35407W        W35888  12.905  15.597   2.023
35408W        W35889  13.757  15.895   0.861
35409W        W35890  14.044  15.628   0.503
35410W        W35891  13.853  17.668   0.892
35411W        W35892  13.687  17.271   1.688
35412W        W35893  13.583  16.350   0.666
35413W        W35894  13.016  16.560   1.652
35414W        W35895  13.897  16.348   1.719
35415W        W35896  11.272  15.363   2.143
35416W        W35897  14.050  16.415   2.970
35417W        W35898  12.331  17.477   1.518
35418W        W35899  13.332  15.340   2.606
35419W        W35900  14.236  15.002   1.133
35420W        W35901  14.027  16.321   2.434
35421W        W35902  11.010  15.642   2.472
35422W        W35903  13.870  15.437   1.490
35423W        W35904  14.281  15.588   3.267
35424W        W35905  13.166  17.287   1.485
35425W        W35906  11.537  15.058   0.356
35426W        W35907  12.641  14.712   2.166
35427W        W35908  11.669  17.832   0.014
35428W        W35909  12.043  16.298   0.765
35429W        W35910  12.697  16.927   3.078
35430W        W35911  12.527  15.285   1.068
35431W        W35912  13.883  14.882   1.496
35432W        W35913  12.411  16.849   2.125
35433W        W35914  14.181  17.572   2.251
35434W        W35915  11.875  15.075   1.020
35435W        W35916  12.397  17.372   1.980
35436W        W35917  11.880  15.303   0.045
35437W        W35918  12.681  15.912   2.439
35438W        W35919  13.529  14.778   2.309
35439W        W35920  10.949  16.621   2.194
35440W        W35921  12.653  16.439   0.352
35441W        W35922  11.921  14.754   0.122
35442W        W35923  12.659  15.835   1.173
35443W        W35924  13.629  14.811   2.872
35444W        W35925  12.217  16.823   2.981
35445W        W35926  13.021  16.605   3.198
35446W        W35927  13.638  16.635   3.091
35447W        W35928  12.922  14.775   3.596
35448W        W35929  12.144  15.391   1.989
35449W        W35930  11.570  15.347   1.387
35450W        W35931  12.688  17.389   3.188
35451W        W35932  11.723  16.874   0.547
35452W        W35933  13.403  16.259   1.768
35453W        W35934  13.683  16.058   2.167
35454W        W35935  12.888  16.732   2.101
35455W        W35936  13.358  17.106   0.233
35456W        W35937  13.030  15.127   1.561
35457W        W35938  14.509  15.405   0.829
35458W        W35939  11.420  17.220   2.392
35459W        W35940  12.886  15.336   2.430
35460W        W35941  12.249  17.359   0.279
35461W        W35942  13.129  16.394   0.479
35462W        W35943  11.972  15.585   0.996
35463W        W35944  12.804  15.495   0.048
35464W        W35945  13.388  17.060   3.226
35465W        W35946  13.741  14.966   0.843
35466W        W35947  11.071  14.814   0.291
35467W        W35948  12.357  17.133   2.581
35468W        W35949  12.156  17.049   1.673
35469W        W35950  11.898  17.001   0.071
35470W        W35951  11.139  17.242   0.839
35471W        W35952  11.643  16.312   3.281
35472W        W35953  12.347  14.872   3.467
35473W        W35954  13.056  15.014   2.823
35474W        W35955  12.251  14.782   1.104
35475W        W35956  13.310  14.859   0.609
35476W        W35957  11.255  14.791   2.186
35477W        W35958  11.303  15.754   1.556
35478W        W35959  13.992  14.862   1.962
35479W        W35960  11.414  15.360   0.776
35480W        W35961  13.985  15.048   2.392
35481W        W35962  14.381  16.251   0.077
35482W        W35963  11.673  15.009   1.896
35483W        W35964  12.787  15.581   2.836
35484W        W35965  10.935  15.271   0.314
35485W        W35966  11.721  16.660   2.875
35486W        W35967  13.079  16.058   2.054
35487W        W35968  11.092  16.644   0.047
35488W        W35969  11.827  17.055   3.173
35489W        W35970  11.348  16.222   2.804
35490W        W35971  12.339  16.327   2.598
35491W        W35972  14.107  14.686   2.860
35492W        W35973  14.505  16.296   2.851
35493W        W35974  14.493  16.496   0.537
35494W        W35975  13.356  16.828   0.636
35495W        W35976  13.007  16.118   3.473
35496W        W35977  11.337  17.085   3.513
35497W        W35978  14.543  15.007   3.465
35498W        W35979  14.261  15.935   2.086
35499W        W35980  12.424  14.694   0.290
35500W        W35981  13.963  17.293   0.233
35501W        W35982  11.732  15.386   3.119
35502W        W35983  12.166  17.380   2.981
35503W        W35984  14.292  15.371   2.779
35504W        W35985  13.742  16.649   2.114
35505W        W35986  11.992  15.065   2.781
35506W        W35987  12.461  16.134   3.538
35507W        W35988  11.964  17.313   0.732
35508W        W35989  13.719  16.811   0.996
35509W        W35990  11.487  15.437   2.720
35510W        W35991  12.816  17.499   1.184
35511W        W35992  14.566  16.059   1.365
35512W        W35993  12.788  14.692   3.084
35513W        W35994  13.568  17.397   2.163
35514W        W35995  13.871  17.741   1.871
35515W        W35996  13.090  17.543   0.299
35516W        W35997  11.100  17.435   3.141
35517W        W35998  11.843  15.427   2.379
35518W        W35999  11.813  14.775   1.489
35519W        W36000  13.434  15.617   2.181
35520W        W36001  12.232  16.788   0.381
35521W        W36002  14.230  16.730   1.880
35522W        W36003  11.557  17.488   3.303
35523W        W36004  12.043  15.190   1.545
35524W        W36005  11.812  16.683   1.635
35525W        W36006  13.351  16.378   2.350
35526W        W36007  11.200  16.176   0.265
35527W        W36008  12.310  14.677   2.984
35528W        W36009  14.016  17.479   1.442
35529W        W36010  14.045  16.035   1.347
35530W        W36011  12.162  15.708   1.563
35531W        W36012  12.407  15.970   2.887
35532W        W36013  13.518  17.123   2.750
35533W        W36014  12.168  15.577   2.862
35534W        W36015  11.576  17.363   0.242
35535W        W36016  14.093  17.121   1.052
35536W        W36017  11.697  15.913   2.938
35537W        W36018  14.470  15.843   0.419
35538W        W36019  12.215  16.900   0.890
35539W        W36020  13.314  16.282   2.971
35540W        W36021  13.205  15.910   2.515
35541W        W36022  11.765  16.282   2.544
35542W        W36023  13.766  14.804   3.367
35543W        W36024  11.430  14.954   2.954
35544W        W36025  11.769  15.977   2.007
35545W        W36026  12.138  15.791   0.129
35546W        W36027  10.941  17.550   2.674
35547W        W36028  12.526  16.259   2.117
35548W        W36029  12.349  15.284   0.222
35549W        W36030  11.484  16.100   1.003
35550W        W36031  14.050  16.178   0.548
35551W        W36032  13.581  17.303   1.197
35552W        W36033  14.145  14.691   0.670
35553W        W36034  13.665  17.166   0.681
35554W        W36035  12.567  16.224   0.766
35555W        W36036  13.754  15.028   0.289
35556W        W36037  13.819  15.635   2.475
35557W        W36038  11.528  16.228   1.682
35558W        W36039  11.822  17.167   1.331
35559W        W36040  13.585  15.787   1.296
35560W        W36041  12.608  15.166   1.992
35561W        W36042  14.570  17.077   2.503
35562W        W36043  14.488  15.064   2.064
35563W        W36044  11.536  17.081   0.976
35564W        W36045  11.451  14.698   3.529
35565W        W36046  12.570  17.551   3.631
35566W        W36047  14.325  16.519   1.421
35567W        W36048  13.679  16.696   0.301
35568W        W36049  13.831  16.939   3.550
35569W        W36050  12.646  14.649   0.830
35570W        W36051  13.359  15.518   1.689
35571W        W36052  11.045  17.105   2.021
35572W        W36053  12.298  15.067   0.662
35573W        W36054  12.102  16.551   3.511
35574W        W36055  13.096  15.532   1.225
35575W        W36056  13.301  16.942   2.347
35576W        W36057  11.455  17.547   2.782
35577W        W36058  12.046  17.530   3.505
35578W        W36059  11.897  15.327   0.519
35579W        W36060  13.414  15.469   0.844
35580W        W36061  13.372  17.577   3.081
35581W        W36062  12.057  16.169   1.680
35582W        W36063  11.320  16.656   3.142
35583W        W36064  13.315  16.918   1.830
35584W        W36065  11.751  16.567   1.072
35585W        W36066  12.122  17.574   2.467
35586W        W36067  12.500  14.993   1.508
35587W        W36068  11.111  16.977   0.438
35588W        W36069  12.630  15.928   0.308
35589W        W36070  11.276  16.477   1.327
35590W        W36071  12.566  15.119   2.791
35591W        W36072  14.238  14.828   0.218
35592W        W36073  14.331  16.574   3.317
35593W        W36074  14.543  16.925   2.991
35594W        W36075  13.951  17.723   3.602
35595W        W36076  14.549  16.801   0.954
35596W        W36077  13.079  16.068   1.467
35597W        W36078  12.846  14.680   1.357
35598W        W36079  11.905  17.664   1.194
35599W        W36080  12.404  15.405   2.419
35600W        W36081  12.104  14.774   1.888
35601W        W36082  11.167  17.596   0.436
35602W        W36083  12.983  16.960   1.154
35603W        W36084  11.335  16.578   0.729
35604W        W36085  11.220  15.121   1.728
35605W        W36086  12.768  17.086   1.785
35606W        W36087  11.020  14.940   0.805
35607W        W36088  13.684  16.146   2.732
35608W        W36089  13.561  15.532   0.304
35609W        W36090  14.078  17.204   1.952
35610W        W36091  12.739  17.688   1.783
35611W        W36092  13.430  15.713   3.500
35612W        W36093  11.413  15.243   3.499
35613W        W36094  11.144  15.843   0.832
35614W        W36095  11.835  15.832   0.557
35615W        W36096  13.598  16.159   3.374
35616W        W36097  11.941  16.440   2.083
35617W        W36098  13.415  14.726   1.203
35618W        W36099  13.760  17.619   2.643
35619W        W36100  13.363  16.748   1.348
35620W        W36101  12.825  14.973   0.419
35621W        W36102  14.506  14.601   1.141
35622W        W36103  12.194  16.236   0.304
35623W        W36104  14.360  15.573   1.294
35624W        W36105  13.052  16.743   0.171
35625W        W36106  13.988  16.943   2.919
35626W        W36107  13.642  17.644   0.386
35627W        W36108  12.257  15.319   3.292
35628W        W36109  12.077  15.903   2.533
35629W        W36110  14.169  17.398   2.810
35630W        W36111  13.269  15.348   3.187
35631W        W36112  11.113  15.819   2.964
35632W        W36113  12.873  16.296   2.690
35633W        W36114  11.230  17.054   1.347
35634W        W36115  11.377  16.351   2.237
35635W        W36116  13.694  16.637   2.587
35636W        W36117  13.362  15.756   2.951
35637W        W36118  12.641  17.530   2.679
35638W        W36119  13.931  17.056   2.367
35639W        W36120  12.981  17.128   3.504
35640W        W36121  11.586  17.081   1.843
35641W        W36122  13.932  16.840   1.488
35642W        W36123  11.551  17.635   2.109
35643W        W36124  12.572  15.687   3.319
35644W        W36125  12.331  17.108   3.468
35645W        W36126  12.457  17.346   0.845
35646W        W36127  11.678  16.086   0.104
35647W        W36128  11.393  17.065   6.526
35648W        W36129  14.098  16.795   4.296
35649W        W36130  12.229  16.023   4.832
35650W        W36131  11.744  15.871   4.996
35651W        W36132  12.735  16.686   4.430
35652W        W36133  11.059  15.339   6.748
35653W        W36134  11.821  14.619   6.550
35654W        W36135  13.515  15.007   5.437
35655W        W36136  13.164  15.878   4.007
35656W        W36137  13.734  15.312   7.098
35657W        W36138  11.100  15.104   6.223
35658W        W36139  11.199  17.723   7.244
35659W        W36140  12.721  17.113   3.976
35660W        W36141  11.153  15.896   5.669
35661W        W36142  12.046  15.787   6.906
35662W        W36143  14.505  15.646   5.405
35663W        W36144  14.269  16.689   6.264
35664W        W36145  12.577  16.022   5.291
35665W        W36146  13.123  17.361   5.660
35666W        W36147  11.623  16.795   5.892
35667W        W36148  10.982  16.323   5.463
35668W        W36149  12.018  16.295   6.655
35669W        W36150  14.289  16.078   6.909
35670W        W36151  11.905  17.522   5.354
35671W        W36152  12.246  15.851   5.713
35672W        W36153  12.538  16.635   5.356
35673W        W36154  13.535  17.408   7.204
35674W        W36155  12.614  16.728   7.214
35675W        W36156  12.595  16.444   6.692
35676W        W36157  11.004  15.835   7.214
35677W        W36158  13.836  17.370   6.813
35678W        W36159  11.417  14.952   4.811
35679W        W36160  11.944  17.210   5.810
35680W        W36161  14.407  16.993   5.100
35681W        W36162  13.820  15.393   5.667
35682W        W36163  14.105  15.346   3.762
35683W        W36164  14.570  16.147   6.068
35684W        W36165  14.311  17.320   4.259
35685W        W36166  11.630  14.906   6.115
35686W        W36167  14.253  15.924   6.390
35687W        W36168  13.658  16.346   4.849
35688W        W36169  13.624  16.034   3.876
35689W        W36170  12.832  17.178   6.016
35690W        W36171  12.638  15.508   5.215
35691W        W36172  13.238  17.595   6.209
35692W        W36173  14.109  16.386   4.631
35693W        W36174  13.011  15.044   4.647
35694W        W36175  11.668  17.738   4.330
35695W        W36176  11.039  15.237   4.929
35696W        W36177  13.825  15.844   5.403
35697W        W36178  11.283  17.461   5.318
35698W        W36179  14.016  15.837   3.652
35699W        W36180  11.039  17.595   5.816
35700W        W36181  11.830  17.167   6.296
35701W        W36182  12.203  16.527   4.915
35702W        W36183  12.225  14.932   6.008
35703W        W36184  14.454  14.694   5.305
35704W        W36185  11.673  16.566   3.773
35705W        W36186  11.328  15.599   3.952
35706W        W36187  11.390  17.555   4.746
35707W        W36188  12.521  17.038   4.994
35708W        W36189  12.779  15.539   4.392
35709W        W36190  13.839  15.790   6.762
35710W        W36191  14.552  17.446   4.896
35711W        W36192  13.179  16.738   6.380
35712W        W36193  10.945  16.289   4.586
35713W        W36194  12.056  16.704   6.159
35714W        W36195  13.260  15.968   4.537
35715W        W36196  13.137  16.458   4.641
35716W        W36197  11.480  15.878   6.115
35717W        W36198  11.465  15.754   7.037
35718W        W36199  11.355  14.671   5.196
35719W        W36200  13.123  15.018   5.757
35720W        W36201  12.771  15.203   6.920
35721W        W36202  13.126  15.352   4.098
35722W        W36203  14.309  17.745   6.852
35723W        W36204  13.276  14.826   6.891
35724W        W36205  14.295  17.127   7.013
35725W        W36206  13.725  15.294   6.609
35726W        W36207  13.525  15.232   4.879
35727W        W36208  13.918  16.366   7.283
35728W        W36209  12.316  15.659   4.255
35729W        W36210  11.885  14.943   6.919
35730W        W36211  13.937  15.427   4.600
35731W        W36212  14.304  15.909   4.545
35732W        W36213  11.973  14.662   4.251
35733W        W36214  14.294  15.196   5.286
35734W        W36215  14.444  17.445   3.731
35735W        W36216  11.351  16.648   5.433
35736W        W36217  13.268  15.235   3.663
35737W        W36218  14.402  17.567   5.383
35738W        W36219  14.441  14.761   6.133
35739W        W36220  12.886  15.973   6.687
35740W        W36221  12.979  17.312   4.390
35741W        W36222  13.379  16.606   7.130
35742W        W36223  13.053  14.583   5.439
35743W        W36224  11.665  15.486   5.502
35744W        W36225  11.219  16.686   6.276
35745W        W36226  14.272  15.476   5.854
35746W        W36227  14.252  16.882   3.826
35747W        W36228  12.687  16.365   4.887
35748W        W36229  14.539  14.876   6.628
35749W        W36230  12.688  16.711   6.222
35750W        W36231  12.905  15.597   5.667
35751W        W36232  13.757  15.895   4.505
35752W        W36233  14.044  15.628   4.147
35753W        W36234  13.853  17.668   4.536
35754W        W36235  13.687  17.271   5.332
35755W        W36236  13.583  16.350   4.310
35756W        W36237  13.016  16.560   5.296
35757W        W36238  13.897  16.348   5.363
35758W        W36239  11.272  15.363   5.787
35759W        W36240  14.050  16.415   6.614
35760W        W36241  12.331  17.477   5.162
35761W        W36242  13.332  15.340   6.250
35762W        W36243  14.236  15.002   4.777
35763W        W36244  14.027  16.321   6.078
35764W        W36245  11.010  15.642   6.116
35765W        W36246  13.870  15.437   5.134
35766W        W36247  14.281  15.588   6.911
35767W        W36248  13.166  17.287   5.129
35768W        W36249  11.537  15.058   4.000
35769W        W36250  12.641  14.712   5.810
35770W        W36251  12.043  16.298   4.409
35771W        W36252  12.527  15.285   4.712
35772W        W36253  13.883  14.882   5.140
35773W        W36254  12.411  16.849   5.769
35774W        W36255  14.181  17.572   5.895
35775W        W36256  11.875  15.075   4.664
35776W        W36257  12.397  17.372   5.624
35777W        W36258  11.880  15.303   3.689
35778W        W36259  12.681  15.912   6.083
35779W        W36260  13.529  14.778   5.953
35780W        W36261  10.949  16.621   5.838
35781W        W36262  12.653  16.439   3.996
35782W        W36263  11.921  14.754   3.766
35783W        W36264  12.659  15.835   4.817
35784W        W36265  13.629  14.811   6.516
35785W        W36266  12.217  16.823   6.625
35786W        W36267  13.021  16.605   6.842
35787W        W36268  13.638  16.635   6.735
35788W        W36269  12.922  14.775   7.240
35789W        W36270  12.144  15.391   5.633
35790W        W36271  11.570  15.347   5.031
35791W        W36272  12.688  17.389   6.832
35792W        W36273  11.723  16.874   4.191
35793W        W36274  13.403  16.259   5.412
35794W        W36275  13.683  16.058   5.811
35795W        W36276  12.888  16.732   5.745
35796W        W36277  13.358  17.106   3.877
35797W        W36278  13.030  15.127   5.205
35798W        W36279  14.509  15.405   4.473
35799W        W36280  11.420  17.220   6.036
35800W        W36281  12.886  15.336   6.074
35801W        W36282  12.249  17.359   3.923
35802W        W36283  13.129  16.394   4.123
35803W        W36284  11.972  15.585   4.640
35804W        W36285  12.804  15.495   3.692
35805W        W36286  13.388  17.060   6.870
35806W        W36287  13.741  14.966   4.487
35807W        W36288  11.071  14.814   3.935
35808W        W36289  12.357  17.133   6.225
35809W        W36290  12.156  17.049   5.317
35810W        W36291  11.898  17.001   3.715
35811W        W36292  11.139  17.242   4.483
35812W        W36293  11.643  16.312   6.925
35813W        W36294  12.347  14.872   7.111
35814W        W36295  13.056  15.014   6.467
35815W        W36296  12.251  14.782   4.748
35816W        W36297  13.310  14.859   4.253
35817W        W36298  11.255  14.791   5.830
35818W        W36299  11.303  15.754   5.200
35819W        W36300  13.992  14.862   5.606
35820W        W36301  11.414  15.360   4.420
35821W        W36302  13.985  15.048   6.036
35822W        W36303  14.381  16.251   3.721
35823W        W36304  11.673  15.009   5.540
35824W        W36305  12.787  15.581   6.480
35825W        W36306  10.935  15.271   3.958
35826W        W36307  11.721  16.660   6.519
35827W        W36308  13.079  16.058   5.698
35828W        W36309  11.092  16.644   3.691
35829W        W36310  11.827  17.055   6.817
35830W        W36311  11.348  16.222   6.448
35831W        W36312  12.339  16.327   6.242
35832W        W36313  14.107  14.686   6.504
35833W        W36314  14.505  16.296   6.495
35834W        W36315  14.493  16.496   4.181
35835W        W36316  13.356  16.828   4.280
35836W        W36317  13.007  16.118   7.117
35837W        W36318  11.337  17.085   7.157
35838W        W36319  14.543  15.007   7.109
35839W        W36320  14.261  15.935   5.730
35840W        W36321  12.424  14.694   3.934
35841W        W36322  13.963  17.293   3.877
35842W        W36323  11.732  15.386   6.763
35843W        W36324  12.166  17.380   6.625
35844W        W36325  14.292  15.371   6.423
35845W        W36326  13.742  16.649   5.758
35846W        W36327  11.992  15.065   6.425
35847W        W36328  12.461  16.134   7.182
35848W        W36329  11.964  17.313   4.376
35849W        W36330  13.719  16.811   4.640
35850W        W36331  11.487  15.437   6.364
35851W        W36332  12.816  17.499   4.828
35852W        W36333  14.566  16.059   5.009
35853W        W36334  12.788  14.692   6.728
35854W        W36335  13.568  17.397   5.807
35855W        W36336  13.871  17.741   5.515
35856W        W36337  13.090  17.543   3.943
35857W        W36338  11.100  17.435   6.785
35858W        W36339  11.843  15.427   6.023
35859W        W36340  11.813  14.775   5.133
35860W        W36341  13.434  15.617   5.825
35861W        W36342  12.232  16.788   4.025
35862W        W36343  14.230  16.730   5.524
35863W        W36344  11.557  17.488   6.947
35864W        W36345  12.043  15.190   5.189
35865W        W36346  11.812  16.683   5.279
35866W        W36347  13.351  16.378   5.994
35867W        W36348  11.200  16.176   3.909
35868W        W36349  14.171  15.158   4.225
35869W        W36350  12.310  14.677   6.628
35870W        W36351  14.016  17.479   5.086
35871W        W36352  14.045  16.035   4.991
35872W        W36353  12.162  15.708   5.207
35873W        W36354  12.407  15.970   6.531
35874W        W36355  13.518  17.123   6.394
35875W        W36356  12.168  15.577   6.506
35876W        W36357  11.576  17.363   3.886
35877W        W36358  14.093  17.121   4.696
35878W        W36359  11.697  15.913   6.582
35879W        W36360  14.470  15.843   4.063
35880W        W36361  12.215  16.900   4.534
35881W        W36362  13.314  16.282   6.615
35882W        W36363  13.205  15.910   6.159
35883W        W36364  11.765  16.282   6.188
35884W        W36365  13.766  14.804   7.011
35885W        W36366  11.430  14.954   6.598
35886W        W36367  11.769  15.977   5.651
35887W        W36368  12.138  15.791   3.773
35888W        W36369  10.941  17.550   6.318
35889W        W36370  12.526  16.259   5.761
35890W        W36371  12.349  15.284   3.866
35891W        W36372  11.484  16.100   4.647
35892W        W36373  14.050  16.178   4.192
35893W        W36374  14.145  15.094   6.878
35894W        W36375  13.581  17.303   4.841
35895W        W36376  11.179  16.227   7.018
35896W        W36377  14.145  14.691   4.314
35897W        W36378  13.665  17.166   4.325
35898W        W36379  12.567  16.224   4.410
35899W        W36380  13.754  15.028   3.933
35900W        W36381  13.819  15.635   6.119
35901W        W36382  11.528  16.228   5.326
35902W        W36383  11.822  17.167   4.975
35903W        W36384  13.585  15.787   4.940
35904W        W36385  12.608  15.166   5.636
35905W        W36386  14.570  17.077   6.147
35906W        W36387  14.488  15.064   5.708
35907W        W36388  11.536  17.081   4.620
35908W        W36389  11.451  14.698   7.173
35909W        W36390  12.570  17.551   7.275
35910W        W36391  14.325  16.519   5.065
35911W        W36392  13.679  16.696   3.945
35912W        W36393  13.831  16.939   7.194
35913W        W36394  12.646  14.649   4.474
35914W        W36395  13.359  15.518   5.333
35915W        W36396  11.045  17.105   5.665
35916W        W36397  12.298  15.067   4.306
35917W        W36398  12.102  16.551   7.155
35918W        W36399  13.096  15.532   4.869
35919W        W36400  13.301  16.942   5.991
35920W        W36401  11.455  17.547   6.426
35921W        W36402  12.046  17.530   7.149
35922W        W36403  11.897  15.327   4.163
35923W        W36404  13.414  15.469   4.488
35924W        W36405  13.372  17.577   6.725
35925W        W36406  12.057  16.169   5.324
35926W        W36407  11.320  16.656   6.786
35927W        W36408  13.315  16.918   5.474
35928W        W36409  12.122  17.574   6.111
35929W        W36410  12.500  14.993   5.152
35930W        W36411  11.111  16.977   4.082
35931W        W36412  12.630  15.928   3.952
35932W        W36413  11.276  16.477   4.971
35933W        W36414  12.566  15.119   6.435
35934W        W36415  14.238  14.828   3.862
35935W        W36416  14.331  16.574   6.961
35936W        W36417  14.543  16.925   6.635
35937W        W36418  13.951  17.723   7.246
35938W        W36419  14.549  16.801   4.598
35939W        W36420  13.079  16.068   5.111
35940W        W36421  12.846  14.680   5.001
35941W        W36422  11.905  17.664   4.838
35942W        W36423  12.404  15.405   6.063
35943W        W36424  12.104  14.774   5.532
35944W        W36425  11.167  17.596   4.080
35945W        W36426  12.983  16.960   4.798
35946W        W36427  11.335  16.578   4.373
35947W        W36428  11.220  15.121   5.372
35948W        W36429  12.768  17.086   5.429
35949W        W36430  11.020  14.940   4.449
35950W        W36431  13.684  16.146   6.376
35951W        W36432  13.561  15.532   3.948
35952W        W36433  14.078  17.204   5.596
35953W        W36434  12.739  17.688   5.427
35954W        W36435  13.433  14.695   3.768
35955W        W36436  13.430  15.713   7.144
35956W        W36437  11.413  15.243   7.143
35957W        W36438  11.144  15.843   4.476
35958W        W36439  11.835  15.832   4.201
35959W        W36440  13.598  16.159   7.018
35960W        W36441  11.941  16.440   5.727
35961W        W36442  13.415  14.726   4.847
35962W        W36443  13.760  17.619   6.287
35963W        W36444  13.363  16.748   4.992
35964W        W36445  12.825  14.973   4.063
35965W        W36446  14.506  14.601   4.785
35966W        W36447  12.194  16.236   3.948
35967W        W36448  14.360  15.573   4.938
35968W        W36449  13.052  16.743   3.815
35969W        W36450  13.988  16.943   6.563
35970W        W36451  13.642  17.644   4.030
35971W        W36452  12.257  15.319   6.936
35972W        W36453  12.077  15.903   6.177
35973W        W36454  14.169  17.398   6.454
35974W        W36455  13.269  15.348   6.831
35975W        W36456  11.113  15.819   6.608
35976W        W36457  12.873  16.296   6.334
35977W        W36458  11.230  17.054   4.991
35978W        W36459  11.377  16.351   5.881
35979W        W36460  13.694  16.637   6.231
35980W        W36461  13.362  15.756   6.595
35981W        W36462  12.641  17.530   6.323
35982W        W36463  13.931  17.056   6.011
35983W        W36464  12.981  17.128   7.148
35984W        W36465  11.586  17.081   5.487
35985W        W36466  13.932  16.840   5.132
35986W        W36467  11.551  17.635   5.753
35987W        W36468  12.572  15.687   6.963
35988W        W36469  12.331  17.108   7.112
35989W        W36470  12.457  17.346   4.489
35990W        W36471  11.678  16.086   3.748
35991W        W36472  11.393  17.065  10.171
35992W        W36473  14.098  16.795   7.941
35993W        W36474  12.229  16.023   8.477
35994W        W36475  11.744  15.871   8.641
35995W        W36476  12.735  16.686   8.075
35996W        W36477  11.059  15.339  10.393
35997W        W36478  11.821  14.619  10.195
35998W        W36479  13.515  15.007   9.082
35999W        W36480  13.164  15.878   7.652
36000W        W36481  13.734  15.312  10.743
36001W        W36482  11.100  15.104   9.868
36002W        W36483  11.199  17.723  10.889
36003W        W36484  12.721  17.113   7.621
36004W        W36485  11.153  15.896   9.314
36005W        W36486  12.046  15.787  10.551
36006W        W36487  14.505  15.646   9.050
36007W        W36488  14.269  16.689   9.909
36008W        W36489  12.577  16.022   8.936
36009W        W36490  13.123  17.361   9.305
36010W        W36491  11.623  16.795   9.537
36011W        W36492  10.982  16.323   9.108
36012W        W36493  12.018  16.295  10.300
36013W        W36494  14.289  16.078  10.554
36014W        W36495  11.905  17.522   8.999
36015W        W36496  13.026  17.211  10.133
36016W        W36497  12.246  15.851   9.358
36017W        W36498  12.538  16.635   9.001
36018W        W36499  13.535  17.408  10.849
36019W        W36500  12.614  16.728  10.859
36020W        W36501  12.595  16.444  10.337
36021W        W36502  11.004  15.835  10.859
36022W        W36503  13.836  17.370  10.458
36023W        W36504  11.417  14.952   8.456
36024W        W36505  11.944  17.210   9.455
36025W        W36506  14.407  16.993   8.745
36026W        W36507  13.820  15.393   9.312
36027W        W36508  14.105  15.346   7.407
36028W        W36509  14.570  16.147   9.713
36029W        W36510  14.311  17.320   7.904
36030W        W36511  11.630  14.906   9.760
36031W        W36512  14.253  15.924  10.035
36032W        W36513  13.658  16.346   8.494
36033W        W36514  13.624  16.034   7.521
36034W        W36515  12.832  17.178   9.661
36035W        W36516  12.638  15.508   8.860
36036W        W36517  13.238  17.595   9.854
36037W        W36518  14.109  16.386   8.276
36038W        W36519  13.011  15.044   8.292
36039W        W36520  11.668  17.738   7.975
36040W        W36521  11.039  15.237   8.574
36041W        W36522  13.825  15.844   9.048
36042W        W36523  11.283  17.461   8.963
36043W        W36524  14.016  15.837   7.297
36044W        W36525  11.039  17.595   9.461
36045W        W36526  11.830  17.167   9.941
36046W        W36527  12.203  16.527   8.560
36047W        W36528  12.225  14.932   9.653
36048W        W36529  14.454  14.694   8.950
36049W        W36530  11.673  16.566   7.418
36050W        W36531  11.328  15.599   7.597
36051W        W36532  11.390  17.555   8.391
36052W        W36533  12.779  15.539   8.037
36053W        W36534  13.839  15.790  10.407
36054W        W36535  14.552  17.446   8.541
36055W        W36536  13.179  16.738  10.025
36056W        W36537  10.945  16.289   8.231
36057W        W36538  12.056  16.704   9.804
36058W        W36539  13.260  15.968   8.182
36059W        W36540  13.137  16.458   8.286
36060W        W36541  11.480  15.878   9.760
36061W        W36542  11.465  15.754  10.682
36062W        W36543  11.355  14.671   8.841
36063W        W36544  13.123  15.018   9.402
36064W        W36545  12.771  15.203  10.565
36065W        W36546  13.126  15.352   7.743
36066W        W36547  14.309  17.745  10.497
36067W        W36548  13.276  14.826  10.536
36068W        W36549  14.295  17.127  10.658
36069W        W36550  13.725  15.294  10.254
36070W        W36551  13.525  15.232   8.524
36071W        W36552  13.918  16.366  10.928
36072W        W36553  11.885  14.943  10.564
36073W        W36554  13.937  15.427   8.245
36074W        W36555  14.304  15.909   8.190
36075W        W36556  11.973  14.662   7.896
36076W        W36557  14.294  15.196   8.931
36077W        W36558  14.444  17.445   7.376
36078W        W36559  11.351  16.648   9.078
36079W        W36560  13.268  15.235   7.308
36080W        W36561  14.402  17.567   9.028
36081W        W36562  14.441  14.761   9.778
36082W        W36563  12.886  15.973  10.332
36083W        W36564  12.979  17.312   8.035
36084W        W36565  13.379  16.606  10.775
36085W        W36566  13.053  14.583   9.084
36086W        W36567  11.665  15.486   9.147
36087W        W36568  11.219  16.686   9.921
36088W        W36569  14.272  15.476   9.499
36089W        W36570  14.252  16.882   7.471
36090W        W36571  12.687  16.365   8.532
36091W        W36572  14.539  14.876  10.273
36092W        W36573  12.688  16.711   9.867
36093W        W36574  12.905  15.597   9.312
36094W        W36575  13.757  15.895   8.150
36095W        W36576  14.044  15.628   7.792
36096W        W36577  13.853  17.668   8.181
36097W        W36578  13.687  17.271   8.977
36098W        W36579  13.583  16.350   7.955
36099W        W36580  13.016  16.560   8.941
36100W        W36581  13.897  16.348   9.008
36101W        W36582  14.050  16.415  10.259
36102W        W36583  12.331  17.477   8.807
36103W        W36584  13.332  15.340   9.895
36104W        W36585  14.236  15.002   8.422
36105W        W36586  14.027  16.321   9.723
36106W        W36587  11.010  15.642   9.761
36107W        W36588  13.870  15.437   8.779
36108W        W36589  14.281  15.588  10.556
36109W        W36590  13.166  17.287   8.774
36110W        W36591  11.537  15.058   7.645
36111W        W36592  12.641  14.712   9.455
36112W        W36593  12.043  16.298   8.054
36113W        W36594  12.697  16.927  10.367
36114W        W36595  12.527  15.285   8.357
36115W        W36596  13.883  14.882   8.785
36116W        W36597  12.411  16.849   9.414
36117W        W36598  14.181  17.572   9.540
36118W        W36599  11.875  15.075   8.309
36119W        W36600  12.397  17.372   9.269
36120W        W36601  11.880  15.303   7.334
36121W        W36602  12.681  15.912   9.728
36122W        W36603  13.529  14.778   9.598
36123W        W36604  10.949  16.621   9.483
36124W        W36605  12.653  16.439   7.641
36125W        W36606  11.921  14.754   7.411
36126W        W36607  12.659  15.835   8.462
36127W        W36608  13.629  14.811  10.161
36128W        W36609  12.217  16.823  10.270
36129W        W36610  13.021  16.605  10.487
36130W        W36611  13.638  16.635  10.380
36131W        W36612  12.922  14.775  10.885
36132W        W36613  12.144  15.391   9.278
36133W        W36614  11.570  15.347   8.676
36134W        W36615  12.688  17.389  10.477
36135W        W36616  11.723  16.874   7.836
36136W        W36617  13.403  16.259   9.057
36137W        W36618  13.683  16.058   9.456
36138W        W36619  12.888  16.732   9.390
36139W        W36620  13.358  17.106   7.522
36140W        W36621  13.030  15.127   8.850
36141W        W36622  14.509  15.405   8.118
36142W        W36623  11.420  17.220   9.681
36143W        W36624  12.886  15.336   9.719
36144W        W36625  12.249  17.359   7.568
36145W        W36626  13.129  16.394   7.768
36146W        W36627  11.972  15.585   8.285
36147W        W36628  12.804  15.495   7.337
36148W        W36629  13.388  17.060  10.515
36149W        W36630  13.741  14.966   8.132
36150W        W36631  11.071  14.814   7.580
36151W        W36632  12.357  17.133   9.870
36152W        W36633  12.156  17.049   8.962
36153W        W36634  11.898  17.001   7.360
36154W        W36635  11.139  17.242   8.128
36155W        W36636  11.643  16.312  10.570
36156W        W36637  12.347  14.872  10.756
36157W        W36638  13.056  15.014  10.112
36158W        W36639  12.251  14.782   8.393
36159W        W36640  13.310  14.859   7.898
36160W        W36641  11.255  14.791   9.475
36161W        W36642  11.303  15.754   8.845
36162W        W36643  13.992  14.862   9.251
36163W        W36644  11.414  15.360   8.065
36164W        W36645  13.985  15.048   9.681
36165W        W36646  14.381  16.251   7.366
36166W        W36647  11.673  15.009   9.185
36167W        W36648  12.787  15.581  10.125
36168W        W36649  10.935  15.271   7.603
36169W        W36650  11.721  16.660  10.164
36170W        W36651  13.079  16.058   9.343
36171W        W36652  11.092  16.644   7.336
36172W        W36653  11.827  17.055  10.462
36173W        W36654  11.348  16.222  10.093
36174W        W36655  12.339  16.327   9.887
36175W        W36656  14.107  14.686  10.149
36176W        W36657  14.505  16.296  10.140
36177W        W36658  14.493  16.496   7.826
36178W        W36659  13.356  16.828   7.925
36179W        W36660  13.007  16.118  10.762
36180W        W36661  11.337  17.085  10.802
36181W        W36662  14.543  15.007  10.754
36182W        W36663  14.261  15.935   9.375
36183W        W36664  12.424  14.694   7.579
36184W        W36665  13.963  17.293   7.522
36185W        W36666  11.732  15.386  10.408
36186W        W36667  12.166  17.380  10.270
36187W        W36668  14.292  15.371  10.068
36188W        W36669  13.742  16.649   9.403
36189W        W36670  11.992  15.065  10.070
36190W        W36671  12.461  16.134  10.827
36191W        W36672  11.964  17.313   8.021
36192W        W36673  13.719  16.811   8.285
36193W        W36674  11.487  15.437  10.009
36194W        W36675  12.816  17.499   8.473
36195W        W36676  14.566  16.059   8.654
36196W        W36677  12.788  14.692  10.373
36197W        W36678  13.568  17.397   9.452
36198W        W36679  13.871  17.741   9.160
36199W        W36680  13.090  17.543   7.588
36200W        W36681  11.100  17.435  10.430
36201W        W36682  11.843  15.427   9.668
36202W        W36683  11.813  14.775   8.778
36203W        W36684  13.434  15.617   9.470
36204W        W36685  12.232  16.788   7.670
36205W        W36686  14.230  16.730   9.169
36206W        W36687  11.557  17.488  10.592
36207W        W36688  12.043  15.190   8.834
36208W        W36689  11.812  16.683   8.924
36209W        W36690  13.351  16.378   9.639
36210W        W36691  11.200  16.176   7.554
36211W        W36692  14.171  15.158   7.870
36212W        W36693  12.310  14.677  10.273
36213W        W36694  14.016  17.479   8.731
36214W        W36695  14.045  16.035   8.636
36215W        W36696  12.162  15.708   8.852
36216W        W36697  12.407  15.970  10.176
36217W        W36698  13.518  17.123  10.039
36218W        W36699  12.168  15.577  10.151
36219W        W36700  11.576  17.363   7.531
36220W        W36701  14.093  17.121   8.341
36221W        W36702  11.697  15.913  10.227
36222W        W36703  14.470  15.843   7.708
36223W        W36704  12.215  16.900   8.179
36224W        W36705  13.314  16.282  10.260
36225W        W36706  13.205  15.910   9.804
36226W        W36707  11.765  16.282   9.833
36227W        W36708  11.430  14.954  10.243
36228W        W36709  11.769  15.977   9.296
36229W        W36710  12.138  15.791   7.418
36230W        W36711  10.941  17.550   9.963
36231W        W36712  12.526  16.259   9.406
36232W        W36713  12.349  15.284   7.511
36233W        W36714  11.484  16.100   8.292
36234W        W36715  14.050  16.178   7.837
36235W        W36716  14.145  15.094  10.523
36236W        W36717  13.581  17.303   8.486
36237W        W36718  11.179  16.227  10.663
36238W        W36719  14.145  14.691   7.959
36239W        W36720  13.665  17.166   7.970
36240W        W36721  12.567  16.224   8.055
36241W        W36722  13.754  15.028   7.578
36242W        W36723  13.819  15.635   9.764
36243W        W36724  11.528  16.228   8.971
36244W        W36725  11.822  17.167   8.620
36245W        W36726  13.585  15.787   8.585
36246W        W36727  14.570  17.077   9.792
36247W        W36728  14.488  15.064   9.353
36248W        W36729  11.536  17.081   8.265
36249W        W36730  11.451  14.698  10.818
36250W        W36731  12.570  17.551  10.920
36251W        W36732  14.325  16.519   8.710
36252W        W36733  13.679  16.696   7.590
36253W        W36734  13.831  16.939  10.839
36254W        W36735  12.646  14.649   8.119
36255W        W36736  13.359  15.518   8.978
36256W        W36737  11.045  17.105   9.310
36257W        W36738  12.298  15.067   7.951
36258W        W36739  12.102  16.551  10.800
36259W        W36740  13.096  15.532   8.514
36260W        W36741  13.301  16.942   9.636
36261W        W36742  11.455  17.547  10.071
36262W        W36743  12.046  17.530  10.794
36263W        W36744  11.897  15.327   7.808
36264W        W36745  13.414  15.469   8.133
36265W        W36746  13.372  17.577  10.370
36266W        W36747  12.057  16.169   8.969
36267W        W36748  11.320  16.656  10.431
36268W        W36749  13.315  16.918   9.119
36269W        W36750  11.751  16.567   8.361
36270W        W36751  12.122  17.574   9.756
36271W        W36752  12.500  14.993   8.797
36272W        W36753  11.111  16.977   7.727
36273W        W36754  12.630  15.928   7.597
36274W        W36755  11.276  16.477   8.616
36275W        W36756  12.566  15.119  10.080
36276W        W36757  14.238  14.828   7.507
36277W        W36758  14.331  16.574  10.606
36278W        W36759  14.543  16.925  10.280
36279W        W36760  13.951  17.723  10.891
36280W        W36761  14.549  16.801   8.243
36281W        W36762  13.079  16.068   8.756
36282W        W36763  12.846  14.680   8.646
36283W        W36764  11.905  17.664   8.483
36284W        W36765  12.404  15.405   9.708
36285W        W36766  12.104  14.774   9.177
36286W        W36767  11.167  17.596   7.725
36287W        W36768  12.983  16.960   8.443
36288W        W36769  11.335  16.578   8.018
36289W        W36770  11.220  15.121   9.017
36290W        W36771  12.768  17.086   9.074
36291W        W36772  11.020  14.940   8.094
36292W        W36773  13.684  16.146  10.021
36293W        W36774  13.561  15.532   7.593
36294W        W36775  14.078  17.204   9.241
36295W        W36776  12.739  17.688   9.072
36296W        W36777  13.433  14.695   7.413
36297W        W36778  13.430  15.713  10.789
36298W        W36779  11.413  15.243  10.788
36299W        W36780  11.144  15.843   8.121
36300W        W36781  11.835  15.832   7.846
36301W        W36782  13.598  16.159  10.663
36302W        W36783  11.941  16.440   9.372
36303W        W36784  13.415  14.726   8.492
36304W        W36785  13.760  17.619   9.932
36305W        W36786  13.363  16.748   8.637
36306W        W36787  12.825  14.973   7.708
36307W        W36788  14.506  14.601   8.430
36308W        W36789  12.194  16.236   7.593
36309W        W36790  14.360  15.573   8.583
36310W        W36791  13.052  16.743   7.460
36311W        W36792  13.988  16.943  10.208
36312W        W36793  13.642  17.644   7.675
36313W        W36794  12.257  15.319  10.581
36314W        W36795  12.077  15.903   9.822
36315W        W36796  14.169  17.398  10.099
36316W        W36797  13.269  15.348  10.476
36317W        W36798  11.113  15.819  10.253
36318W        W36799  12.873  16.296   9.979
36319W        W36800  11.230  17.054   8.636
36320W        W36801  11.377  16.351   9.526
36321W        W36802  13.694  16.637   9.876
36322W        W36803  13.362  15.756  10.240
36323W        W36804  12.641  17.530   9.968
36324W        W36805  13.931  17.056   9.656
36325W        W36806  12.981  17.128  10.793
36326W        W36807  11.586  17.081   9.132
36327W        W36808  13.932  16.840   8.777
36328W        W36809  11.551  17.635   9.398
36329W        W36810  12.572  15.687  10.608
36330W        W36811  12.331  17.108  10.757
36331W        W36812  12.457  17.346   8.134
36332W        W36813  11.678  16.086   7.393
36333W        W36814  11.393  17.065  13.815
36334W        W36815  14.098  16.795  11.585
36335W        W36816  12.229  16.023  12.121
36336W        W36817  11.744  15.871  12.285
36337W        W36818  12.735  16.686  11.719
36338W        W36819  11.059  15.339  14.037
36339W        W36820  11.821  14.619  13.839
36340W        W36821  13.515  15.007  12.726
36341W        W36822  13.164  15.878  11.296
36342W        W36823  13.734  15.312  14.387
36343W        W36824  11.100  15.104  13.512
36344W        W36825  11.199  17.723  14.533
36345W        W36826  12.721  17.113  11.265
36346W        W36827  11.153  15.896  12.958
36347W        W36828  12.046  15.787  14.195
36348W        W36829  14.505  15.646  12.694
36349W        W36830  12.577  16.022  12.580
36350W        W36831  13.123  17.361  12.949
36351W        W36832  11.623  16.795  13.181
36352W        W36833  10.982  16.323  12.752
36353W        W36834  12.018  16.295  13.944
36354W        W36835  14.289  16.078  14.198
36355W        W36836  11.905  17.522  12.643
36356W        W36837  13.026  17.211  13.777
36357W        W36838  12.246  15.851  13.002
36358W        W36839  12.538  16.635  12.645
36359W        W36840  13.535  17.408  14.493
36360W        W36841  12.614  16.728  14.503
36361W        W36842  12.595  16.444  13.981
36362W        W36843  11.004  15.835  14.503
36363W        W36844  13.836  17.370  14.102
36364W        W36845  11.417  14.952  12.100
36365W        W36846  11.944  17.210  13.099
36366W        W36847  14.407  16.993  12.389
36367W        W36848  13.820  15.393  12.956
36368W        W36849  14.105  15.346  11.051
36369W        W36850  14.570  16.147  13.357
36370W        W36851  14.311  17.320  11.548
36371W        W36852  11.630  14.906  13.404
36372W        W36853  13.658  16.346  12.138
36373W        W36854  13.624  16.034  11.165
36374W        W36855  12.832  17.178  13.305
36375W        W36856  12.638  15.508  12.504
36376W        W36857  13.238  17.595  13.498
36377W        W36858  14.109  16.386  11.920
36378W        W36859  13.011  15.044  11.936
36379W        W36860  11.668  17.738  11.619
36380W        W36861  11.039  15.237  12.218
36381W        W36862  13.825  15.844  12.692
36382W        W36863  11.283  17.461  12.607
36383W        W36864  14.016  15.837  10.941
36384W        W36865  11.039  17.595  13.105
36385W        W36866  11.830  17.167  13.585
36386W        W36867  12.203  16.527  12.204
36387W        W36868  12.225  14.932  13.297
36388W        W36869  14.454  14.694  12.594
36389W        W36870  11.673  16.566  11.062
36390W        W36871  11.328  15.599  11.241
36391W        W36872  11.390  17.555  12.035
36392W        W36873  12.521  17.038  12.283
36393W        W36874  13.839  15.790  14.051
36394W        W36875  14.552  17.446  12.185
36395W        W36876  13.179  16.738  13.669
36396W        W36877  10.945  16.289  11.875
36397W        W36878  12.056  16.704  13.448
36398W        W36879  13.260  15.968  11.826
36399W        W36880  13.137  16.458  11.930
36400W        W36881  11.480  15.878  13.404
36401W        W36882  11.465  15.754  14.326
36402W        W36883  11.355  14.671  12.485
36403W        W36884  13.123  15.018  13.046
36404W        W36885  12.771  15.203  14.209
36405W        W36886  13.126  15.352  11.387
36406W        W36887  14.309  17.745  14.141
36407W        W36888  13.276  14.826  14.180
36408W        W36889  14.295  17.127  14.302
36409W        W36890  13.725  15.294  13.898
36410W        W36891  13.525  15.232  12.168
36411W        W36892  13.918  16.366  14.572
36412W        W36893  12.316  15.659  11.544
36413W        W36894  11.885  14.943  14.208
36414W        W36895  13.937  15.427  11.889
36415W        W36896  14.304  15.909  11.834
36416W        W36897  11.973  14.662  11.540
36417W        W36898  14.294  15.196  12.575
36418W        W36899  14.444  17.445  11.020
36419W        W36900  11.351  16.648  12.722
36420W        W36901  13.268  15.235  10.952
36421W        W36902  14.402  17.567  12.672
36422W        W36903  14.441  14.761  13.422
36423W        W36904  12.886  15.973  13.976
36424W        W36905  12.979  17.312  11.679
36425W        W36906  13.379  16.606  14.419
36426W        W36907  13.053  14.583  12.728
36427W        W36908  11.665  15.486  12.791
36428W        W36909  11.219  16.686  13.565
36429W        W36910  14.272  15.476  13.143
36430W        W36911  14.252  16.882  11.115
36431W        W36912  12.687  16.365  12.176
36432W        W36913  14.539  14.876  13.917
36433W        W36914  12.688  16.711  13.511
36434W        W36915  12.905  15.597  12.956
36435W        W36916  13.757  15.895  11.794
36436W        W36917  14.044  15.628  11.436
36437W        W36918  13.853  17.668  11.825
36438W        W36919  13.687  17.271  12.621
36439W        W36920  13.583  16.350  11.599
36440W        W36921  13.016  16.560  12.585
36441W        W36922  13.897  16.348  12.652
36442W        W36923  11.272  15.363  13.076
36443W        W36924  14.050  16.415  13.903
36444W        W36925  12.331  17.477  12.451
36445W        W36926  13.332  15.340  13.539
36446W        W36927  14.236  15.002  12.066
36447W        W36928  14.027  16.321  13.367
36448W        W36929  11.010  15.642  13.405
36449W        W36930  13.870  15.437  12.423
36450W        W36931  14.281  15.588  14.200
36451W        W36932  13.166  17.287  12.418
36452W        W36933  11.537  15.058  11.289
36453W        W36934  12.641  14.712  13.099
36454W        W36935  12.043  16.298  11.698
36455W        W36936  12.697  16.927  14.011
36456W        W36937  12.527  15.285  12.001
36457W        W36938  13.883  14.882  12.429
36458W        W36939  12.411  16.849  13.058
36459W        W36940  14.181  17.572  13.184
36460W        W36941  11.875  15.075  11.953
36461W        W36942  12.397  17.372  12.913
36462W        W36943  11.880  15.303  10.978
36463W        W36944  12.681  15.912  13.372
36464W        W36945  13.529  14.778  13.242
36465W        W36946  10.949  16.621  13.127
36466W        W36947  12.653  16.439  11.285
36467W        W36948  11.921  14.754  11.055
36468W        W36949  12.659  15.835  12.106
36469W        W36950  13.629  14.811  13.805
36470W        W36951  13.021  16.605  14.131
36471W        W36952  13.638  16.635  14.024
36472W        W36953  12.922  14.775  14.529
36473W        W36954  12.144  15.391  12.922
36474W        W36955  11.570  15.347  12.320
36475W        W36956  12.688  17.389  14.121
36476W        W36957  13.403  16.259  12.701
36477W        W36958  13.683  16.058  13.100
36478W        W36959  12.888  16.732  13.034
36479W        W36960  13.358  17.106  11.166
36480W        W36961  13.030  15.127  12.494
36481W        W36962  11.420  17.220  13.325
36482W        W36963  12.886  15.336  13.363
36483W        W36964  12.249  17.359  11.212
36484W        W36965  13.129  16.394  11.412
36485W        W36966  11.972  15.585  11.929
36486W        W36967  12.804  15.495  10.981
36487W        W36968  13.388  17.060  14.159
36488W        W36969  13.741  14.966  11.776
36489W        W36970  11.071  14.814  11.224
36490W        W36971  12.357  17.133  13.514
36491W        W36972  12.156  17.049  12.606
36492W        W36973  11.898  17.001  11.004
36493W        W36974  11.139  17.242  11.772
36494W        W36975  11.643  16.312  14.214
36495W        W36976  12.347  14.872  14.400
36496W        W36977  13.056  15.014  13.756
36497W        W36978  12.251  14.782  12.037
36498W        W36979  13.310  14.859  11.542
36499W        W36980  11.255  14.791  13.119
36500W        W36981  11.303  15.754  12.489
36501W        W36982  13.992  14.862  12.895
36502W        W36983  11.414  15.360  11.709
36503W        W36984  13.985  15.048  13.325
36504W        W36985  14.381  16.251  11.010
36505W        W36986  11.673  15.009  12.829
36506W        W36987  12.787  15.581  13.769
36507W        W36988  10.935  15.271  11.247
36508W        W36989  11.721  16.660  13.808
36509W        W36990  13.079  16.058  12.987
36510W        W36991  11.827  17.055  14.106
36511W        W36992  11.348  16.222  13.737
36512W        W36993  12.339  16.327  13.531
36513W        W36994  14.107  14.686  13.793
36514W        W36995  14.505  16.296  13.784
36515W        W36996  14.493  16.496  11.470
36516W        W36997  13.356  16.828  11.569
36517W        W36998  13.007  16.118  14.406
36518W        W36999  14.543  15.007  14.398
36519W        W37000  14.261  15.935  13.019
36520W        W37001  12.424  14.694  11.223
36521W        W37002  13.963  17.293  11.166
36522W        W37003  11.732  15.386  14.052
36523W        W37004  12.166  17.380  13.914
36524W        W37005  14.292  15.371  13.712
36525W        W37006  13.742  16.649  13.047
36526W        W37007  11.992  15.065  13.714
36527W        W37008  12.461  16.134  14.471
36528W        W37009  11.964  17.313  11.665
36529W        W37010  13.719  16.811  11.929
36530W        W37011  11.487  15.437  13.653
36531W        W37012  12.816  17.499  12.117
36532W        W37013  14.566  16.059  12.298
36533W        W37014  12.788  14.692  14.017
36534W        W37015  13.568  17.397  13.096
36535W        W37016  13.871  17.741  12.804
36536W        W37017  13.090  17.543  11.232
36537W        W37018  11.100  17.435  14.074
36538W        W37019  11.843  15.427  13.312
36539W        W37020  11.813  14.775  12.422
36540W        W37021  13.434  15.617  13.114
36541W        W37022  12.232  16.788  11.314
36542W        W37023  14.230  16.730  12.813
36543W        W37024  11.557  17.488  14.236
36544W        W37025  12.043  15.190  12.478
36545W        W37026  11.812  16.683  12.568
36546W        W37027  13.351  16.378  13.283
36547W        W37028  11.200  16.176  11.198
36548W        W37029  14.171  15.158  11.514
36549W        W37030  12.310  14.677  13.917
36550W        W37031  14.016  17.479  12.375
36551W        W37032  14.045  16.035  12.280
36552W        W37033  12.162  15.708  12.496
36553W        W37034  12.407  15.970  13.820
36554W        W37035  13.518  17.123  13.683
36555W        W37036  12.168  15.577  13.795
36556W        W37037  11.576  17.363  11.175
36557W        W37038  14.093  17.121  11.985
36558W        W37039  11.697  15.913  13.871
36559W        W37040  14.470  15.843  11.352
36560W        W37041  12.215  16.900  11.823
36561W        W37042  13.314  16.282  13.904
36562W        W37043  11.765  16.282  13.477
36563W        W37044  13.766  14.804  14.300
36564W        W37045  11.430  14.954  13.887
36565W        W37046  11.769  15.977  12.940
36566W        W37047  12.138  15.791  11.062
36567W        W37048  10.941  17.550  13.607
36568W        W37049  12.526  16.259  13.050
36569W        W37050  12.349  15.284  11.155
36570W        W37051  11.484  16.100  11.936
36571W        W37052  14.050  16.178  11.481
36572W        W37053  14.145  15.094  14.167
36573W        W37054  13.581  17.303  12.130
36574W        W37055  11.179  16.227  14.307
36575W        W37056  14.145  14.691  11.603
36576W        W37057  13.665  17.166  11.614
36577W        W37058  12.567  16.224  11.699
36578W        W37059  13.754  15.028  11.222
36579W        W37060  13.819  15.635  13.408
36580W        W37061  11.528  16.228  12.615
36581W        W37062  11.822  17.167  12.264
36582W        W37063  13.585  15.787  12.229
36583W        W37064  12.608  15.166  12.925
36584W        W37065  14.570  17.077  13.436
36585W        W37066  11.536  17.081  11.909
36586W        W37067  11.451  14.698  14.462
36587W        W37068  12.570  17.551  14.564
36588W        W37069  14.325  16.519  12.354
36589W        W37070  13.679  16.696  11.234
36590W        W37071  13.831  16.939  14.483
36591W        W37072  12.646  14.649  11.763
36592W        W37073  13.359  15.518  12.622
36593W        W37074  11.045  17.105  12.954
36594W        W37075  12.298  15.067  11.595
36595W        W37076  12.102  16.551  14.444
36596W        W37077  13.096  15.532  12.158
36597W        W37078  13.301  16.942  13.280
36598W        W37079  11.455  17.547  13.715
36599W        W37080  12.046  17.530  14.438
36600W        W37081  11.897  15.327  11.452
36601W        W37082  13.414  15.469  11.777
36602W        W37083  13.372  17.577  14.014
36603W        W37084  12.057  16.169  12.613
36604W        W37085  11.320  16.656  14.075
36605W        W37086  13.315  16.918  12.763
36606W        W37087  11.751  16.567  12.005
36607W        W37088  12.122  17.574  13.400
36608W        W37089  12.500  14.993  12.441
36609W        W37090  12.630  15.928  11.241
36610W        W37091  11.276  16.477  12.260
36611W        W37092  12.566  15.119  13.724
36612W        W37093  14.238  14.828  11.151
36613W        W37094  14.331  16.574  14.250
36614W        W37095  14.543  16.925  13.924
36615W        W37096  13.951  17.723  14.535
36616W        W37097  14.549  16.801  11.887
36617W        W37098  13.079  16.068  12.400
36618W        W37099  12.846  14.680  12.290
36619W        W37100  11.905  17.664  12.127
36620W        W37101  12.404  15.405  13.352
36621W        W37102  12.104  14.774  12.821
36622W        W37103  11.167  17.596  11.369
36623W        W37104  12.983  16.960  12.087
36624W        W37105  11.335  16.578  11.662
36625W        W37106  11.220  15.121  12.661
36626W        W37107  12.768  17.086  12.718
36627W        W37108  11.020  14.940  11.738
36628W        W37109  13.684  16.146  13.665
36629W        W37110  13.561  15.532  11.237
36630W        W37111  14.078  17.204  12.885
36631W        W37112  12.739  17.688  12.716
36632W        W37113  13.433  14.695  11.057
36633W        W37114  13.430  15.713  14.433
36634W        W37115  11.413  15.243  14.432
36635W        W37116  11.144  15.843  11.765
36636W        W37117  11.835  15.832  11.490
36637W        W37118  13.598  16.159  14.307
36638W        W37119  11.941  16.440  13.016
36639W        W37120  13.415  14.726  12.136
36640W        W37121  13.760  17.619  13.576
36641W        W37122  13.363  16.748  12.281
36642W        W37123  12.825  14.973  11.352
36643W        W37124  14.506  14.601  12.074
36644W        W37125  12.194  16.236  11.237
36645W        W37126  14.360  15.573  12.227
36646W        W37127  13.052  16.743  11.104
36647W        W37128  13.988  16.943  13.852
36648W        W37129  13.642  17.644  11.319
36649W        W37130  12.257  15.319  14.225
36650W        W37131  12.077  15.903  13.466
36651W        W37132  14.169  17.398  13.743
36652W        W37133  13.269  15.348  14.120
36653W        W37134  11.113  15.819  13.897
36654W        W37135  12.873  16.296  13.623
36655W        W37136  11.230  17.054  12.280
36656W        W37137  11.377  16.351  13.170
36657W        W37138  13.694  16.637  13.520
36658W        W37139  13.362  15.756  13.884
36659W        W37140  12.641  17.530  13.612
36660W        W37141  13.931  17.056  13.300
36661W        W37142  12.981  17.128  14.437
36662W        W37143  11.586  17.081  12.776
36663W        W37144  13.932  16.840  12.421
36664W        W37145  11.551  17.635  13.042
36665W        W37146  12.572  15.687  14.252
36666W        W37147  12.331  17.108  14.401
36667W        W37148  12.457  17.346  11.778
36668W        W37149  11.678  16.086  11.037
36669W        W37150  11.393  17.065  17.459
36670W        W37151  14.098  16.795  15.229
36671W        W37152  12.229  16.023  15.765
36672W        W37153  11.744  15.871  15.929
36673W        W37154  12.735  16.686  15.363
36674W        W37155  11.059  15.339  17.681
36675W        W37156  11.821  14.619  17.483
36676W        W37157  13.164  15.878  14.940
36677W        W37158  11.100  15.104  17.156
36678W        W37159  12.721  17.113  14.909
36679W        W37160  11.153  15.896  16.602
36680W        W37161  14.505  15.646  16.338
36681W        W37162  14.269  16.689  17.197
36682W        W37163  12.577  16.022  16.224
36683W        W37164  13.123  17.361  16.593
36684W        W37165  11.623  16.795  16.825
36685W        W37166  10.982  16.323  16.396
36686W        W37167  12.018  16.295  17.588
36687W        W37168  11.905  17.522  16.287
36688W        W37169  13.026  17.211  17.421
36689W        W37170  12.246  15.851  16.646
36690W        W37171  12.538  16.635  16.289
36691W        W37172  12.595  16.444  17.625
36692W        W37173  13.836  17.370  17.746
36693W        W37174  11.417  14.952  15.744
36694W        W37175  11.944  17.210  16.743
36695W        W37176  14.407  16.993  16.033
36696W        W37177  13.820  15.393  16.600
36697W        W37178  14.105  15.346  14.695
36698W        W37179  14.570  16.147  17.001
36699W        W37180  14.311  17.320  15.192
36700W        W37181  11.630  14.906  17.048
36701W        W37182  14.253  15.924  17.323
36702W        W37183  13.658  16.346  15.782
36703W        W37184  13.624  16.034  14.809
36704W        W37185  12.832  17.178  16.949
36705W        W37186  12.638  15.508  16.148
36706W        W37187  13.238  17.595  17.142
36707W        W37188  14.109  16.386  15.564
36708W        W37189  13.011  15.044  15.580
36709W        W37190  11.668  17.738  15.263
36710W        W37191  11.039  15.237  15.862
36711W        W37192  13.825  15.844  16.336
36712W        W37193  11.283  17.461  16.251
36713W        W37194  14.016  15.837  14.585
36714W        W37195  11.039  17.595  16.749
36715W        W37196  11.830  17.167  17.229
36716W        W37197  12.203  16.527  15.848
36717W        W37198  12.225  14.932  16.941
36718W        W37199  14.454  14.694  16.238
36719W        W37200  11.673  16.566  14.706
36720W        W37201  11.328  15.599  14.885
36721W        W37202  11.390  17.555  15.679
36722W        W37203  12.521  17.038  15.927
36723W        W37204  12.779  15.539  15.325
36724W        W37205  14.552  17.446  15.829
36725W        W37206  13.179  16.738  17.313
36726W        W37207  10.945  16.289  15.519
36727W        W37208  12.056  16.704  17.092
36728W        W37209  13.260  15.968  15.470
36729W        W37210  13.137  16.458  15.574
36730W        W37211  11.480  15.878  17.048
36731W        W37212  11.355  14.671  16.129
36732W        W37213  13.123  15.018  16.690
36733W        W37214  13.126  15.352  15.031
36734W        W37215  14.309  17.745  17.785
36735W        W37216  13.276  14.826  17.824
36736W        W37217  13.725  15.294  17.542
36737W        W37218  13.525  15.232  15.812
36738W        W37219  12.316  15.659  15.188
36739W        W37220  13.937  15.427  15.533
36740W        W37221  14.304  15.909  15.478
36741W        W37222  11.973  14.662  15.184
36742W        W37223  14.294  15.196  16.219
36743W        W37224  14.444  17.445  14.664
36744W        W37225  11.351  16.648  16.366
36745W        W37226  13.268  15.235  14.596
36746W        W37227  14.402  17.567  16.316
36747W        W37228  14.441  14.761  17.066
36748W        W37229  12.886  15.973  17.620
36749W        W37230  12.979  17.312  15.323
36750W        W37231  13.053  14.583  16.372
36751W        W37232  11.665  15.486  16.435
36752W        W37233  11.219  16.686  17.209
36753W        W37234  14.272  15.476  16.787
36754W        W37235  14.252  16.882  14.759
36755W        W37236  12.687  16.365  15.820
36756W        W37237  14.539  14.876  17.561
36757W        W37238  12.688  16.711  17.155
36758W        W37239  12.905  15.597  16.600
36759W        W37240  13.757  15.895  15.438
36760W        W37241  14.044  15.628  15.080
36761W        W37242  13.853  17.668  15.469
36762W        W37243  13.687  17.271  16.265
36763W        W37244  13.583  16.350  15.243
36764W        W37245  13.016  16.560  16.229
36765W        W37246  13.897  16.348  16.296
36766W        W37247  11.272  15.363  16.720
36767W        W37248  14.050  16.415  17.547
36768W        W37249  12.331  17.477  16.095
36769W        W37250  13.332  15.340  17.183
36770W        W37251  14.236  15.002  15.710
36771W        W37252  14.027  16.321  17.011
36772W        W37253  11.010  15.642  17.049
36773W        W37254  13.870  15.437  16.067
36774W        W37255  13.166  17.287  16.062
36775W        W37256  11.537  15.058  14.933
36776W        W37257  12.641  14.712  16.743
36777W        W37258  12.043  16.298  15.342
36778W        W37259  12.527  15.285  15.645
36779W        W37260  13.883  14.882  16.073
36780W        W37261  12.411  16.849  16.702
36781W        W37262  14.181  17.572  16.828
36782W        W37263  11.875  15.075  15.597
36783W        W37264  12.397  17.372  16.557
36784W        W37265  11.880  15.303  14.622
36785W        W37266  12.681  15.912  17.016
36786W        W37267  13.529  14.778  16.886
36787W        W37268  10.949  16.621  16.771
36788W        W37269  12.653  16.439  14.929
36789W        W37270  11.921  14.754  14.699
36790W        W37271  12.659  15.835  15.750
36791W        W37272  13.629  14.811  17.449
36792W        W37273  12.217  16.823  17.558
36793W        W37274  13.638  16.635  17.668
36794W        W37275  12.144  15.391  16.566
36795W        W37276  11.570  15.347  15.964
36796W        W37277  12.688  17.389  17.765
36797W        W37278  11.723  16.874  15.124
36798W        W37279  13.403  16.259  16.345
36799W        W37280  13.683  16.058  16.744
36800W        W37281  12.888  16.732  16.678
36801W        W37282  13.358  17.106  14.810
36802W        W37283  13.030  15.127  16.138
36803W        W37284  14.509  15.405  15.406
36804W        W37285  11.420  17.220  16.969
36805W        W37286  12.886  15.336  17.007
36806W        W37287  12.249  17.359  14.856
36807W        W37288  13.129  16.394  15.056
36808W        W37289  11.972  15.585  15.573
36809W        W37290  12.804  15.495  14.625
36810W        W37291  11.071  14.814  14.868
36811W        W37292  12.357  17.133  17.158
36812W        W37293  12.156  17.049  16.250
36813W        W37294  11.898  17.001  14.648
36814W        W37295  11.139  17.242  15.416
36815W        W37296  13.056  15.014  17.400
36816W        W37297  12.251  14.782  15.681
36817W        W37298  13.310  14.859  15.186
36818W        W37299  11.255  14.791  16.763
36819W        W37300  11.303  15.754  16.133
36820W        W37301  13.992  14.862  16.539
36821W        W37302  11.414  15.360  15.353
36822W        W37303  13.985  15.048  16.969
36823W        W37304  14.381  16.251  14.654
36824W        W37305  11.673  15.009  16.473
36825W        W37306  12.787  15.581  17.413
36826W        W37307  10.935  15.271  14.891
36827W        W37308  11.721  16.660  17.452
36828W        W37309  13.079  16.058  16.631
36829W        W37310  11.092  16.644  14.624
36830W        W37311  11.348  16.222  17.381
36831W        W37312  12.339  16.327  17.175
36832W        W37313  14.107  14.686  17.437
36833W        W37314  14.505  16.296  17.428
36834W        W37315  14.493  16.496  15.114
36835W        W37316  13.356  16.828  15.213
36836W        W37317  14.261  15.935  16.663
36837W        W37318  12.424  14.694  14.867
36838W        W37319  13.963  17.293  14.810
36839W        W37320  12.166  17.380  17.558
36840W        W37321  14.292  15.371  17.356
36841W        W37322  13.742  16.649  16.691
36842W        W37323  11.992  15.065  17.358
36843W        W37324  11.964  17.313  15.309
36844W        W37325  13.719  16.811  15.573
36845W        W37326  11.487  15.437  17.297
36846W        W37327  12.816  17.499  15.761
36847W        W37328  14.566  16.059  15.942
36848W        W37329  12.788  14.692  17.661
36849W        W37330  13.568  17.397  16.740
36850W        W37331  13.871  17.741  16.448
36851W        W37332  13.090  17.543  14.876
36852W        W37333  11.100  17.435  17.718
36853W        W37334  11.843  15.427  16.956
36854W        W37335  11.813  14.775  16.066
36855W        W37336  13.434  15.617  16.758
36856W        W37337  12.232  16.788  14.958
36857W        W37338  14.230  16.730  16.457
36858W        W37339  12.043  15.190  16.122
36859W        W37340  11.812  16.683  16.212
36860W        W37341  13.351  16.378  16.927
36861W        W37342  11.200  16.176  14.842
36862W        W37343  14.171  15.158  15.158
36863W        W37344  12.310  14.677  17.561
36864W        W37345  14.016  17.479  16.019
36865W        W37346  14.045  16.035  15.924
36866W        W37347  12.162  15.708  16.140
36867W        W37348  12.407  15.970  17.464
36868W        W37349  13.518  17.123  17.327
36869W        W37350  12.168  15.577  17.439
36870W        W37351  11.576  17.363  14.819
36871W        W37352  14.093  17.121  15.629
36872W        W37353  11.697  15.913  17.515
36873W        W37354  14.470  15.843  14.996
36874W        W37355  12.215  16.900  15.467
36875W        W37356  13.314  16.282  17.548
36876W        W37357  13.205  15.910  17.092
36877W        W37358  11.765  16.282  17.121
36878W        W37359  11.430  14.954  17.531
36879W        W37360  11.769  15.977  16.584
36880W        W37361  10.941  17.550  17.251
36881W        W37362  12.349  15.284  14.799
36882W        W37363  11.484  16.100  15.580
36883W        W37364  14.050  16.178  15.125
36884W        W37365  13.581  17.303  15.774
36885W        W37366  14.145  14.691  15.247
36886W        W37367  13.665  17.166  15.258
36887W        W37368  12.567  16.224  15.343
36888W        W37369  13.754  15.028  14.866
36889W        W37370  13.819  15.635  17.052
36890W        W37371  11.528  16.228  16.259
36891W        W37372  11.822  17.167  15.908
36892W        W37373  13.585  15.787  15.873
36893W        W37374  12.608  15.166  16.569
36894W        W37375  14.570  17.077  17.080
36895W        W37376  14.488  15.064  16.641
36896W        W37377  11.536  17.081  15.553
36897W        W37378  14.325  16.519  15.998
36898W        W37379  13.679  16.696  14.878
36899W        W37380  12.646  14.649  15.407
36900W        W37381  13.359  15.518  16.266
36901W        W37382  11.045  17.105  16.598
36902W        W37383  12.298  15.067  15.239
36903W        W37384  13.301  16.942  16.924
36904W        W37385  11.455  17.547  17.359
36905W        W37386  11.897  15.327  15.096
36906W        W37387  13.414  15.469  15.421
36907W        W37388  13.372  17.577  17.658
36908W        W37389  12.057  16.169  16.257
36909W        W37390  13.315  16.918  16.407
36910W        W37391  11.751  16.567  15.649
36911W        W37392  12.122  17.574  17.044
36912W        W37393  12.500  14.993  16.085
36913W        W37394  11.111  16.977  15.015
36914W        W37395  11.276  16.477  15.904
36915W        W37396  12.566  15.119  17.368
36916W        W37397  14.238  14.828  14.795
36917W        W37398  14.549  16.801  15.531
36918W        W37399  13.079  16.068  16.044
36919W        W37400  12.846  14.680  15.934
36920W        W37401  11.905  17.664  15.771
36921W        W37402  12.404  15.405  16.996
36922W        W37403  12.104  14.774  16.465
36923W        W37404  11.167  17.596  15.013
36924W        W37405  12.983  16.960  15.731
36925W        W37406  11.335  16.578  15.306
36926W        W37407  11.220  15.121  16.305
36927W        W37408  12.768  17.086  16.362
36928W        W37409  11.020  14.940  15.382
36929W        W37410  13.684  16.146  17.309
36930W        W37411  13.561  15.532  14.881
36931W        W37412  14.078  17.204  16.529
36932W        W37413  12.739  17.688  16.360
36933W        W37414  13.433  14.695  14.701
36934W        W37415  11.144  15.843  15.409
36935W        W37416  11.835  15.832  15.134
36936W        W37417  11.941  16.440  16.660
36937W        W37418  13.415  14.726  15.780
36938W        W37419  13.760  17.619  17.220
36939W        W37420  13.363  16.748  15.925
36940W        W37421  12.825  14.973  14.996
36941W        W37422  14.506  14.601  15.718
36942W        W37423  12.194  16.236  14.881
36943W        W37424  14.360  15.573  15.871
36944W        W37425  13.052  16.743  14.748
36945W        W37426  13.988  16.943  17.496
36946W        W37427  13.642  17.644  14.963
36947W        W37428  12.077  15.903  17.110
36948W        W37429  14.169  17.398  17.387
36949W        W37430  11.113  15.819  17.541
36950W        W37431  12.873  16.296  17.267
36951W        W37432  11.230  17.054  15.924
36952W        W37433  11.377  16.351  16.814
36953W        W37434  13.694  16.637  17.164
36954W        W37435  13.362  15.756  17.528
36955W        W37436  12.641  17.530  17.256
36956W        W37437  13.931  17.056  16.944
36957W        W37438  11.586  17.081  16.420
36958W        W37439  13.932  16.840  16.065
36959W        W37440  11.551  17.635  16.686
36960W        W37441  12.457  17.346  15.422
36961W        W37442  11.678  16.086  14.681
36962W        W37443  14.661   3.595   3.359
36963W        W37444  15.037   2.488   2.882
36964W        W37445  17.742   2.218   0.652
36965W        W37446  15.790   3.294   0.205
36966W        W37447  15.873   1.446   1.188
36967W        W37448  15.388   1.294   1.352
36968W        W37449  16.379   2.109   0.786
36969W        W37450  16.054   3.201   3.141
36970W        W37451  14.703   0.762   3.104
36971W        W37452  15.465   0.042   2.906
36972W        W37453  17.159   0.430   1.793
36973W        W37454  16.808   1.301   0.363
36974W        W37455  14.744   0.527   2.579
36975W        W37456  14.843   3.146   3.600
36976W        W37457  16.365   2.536   0.332
36977W        W37458  14.797   1.319   2.025
36978W        W37459  15.690   1.210   3.262
36979W        W37460  16.221   1.445   1.647
36980W        W37461  16.767   2.784   2.016
36981W        W37462  15.267   2.218   2.248
36982W        W37463  14.626   1.746   1.819
36983W        W37464  15.662   1.718   3.011
36984W        W37465  15.549   2.945   1.710
36985W        W37466  16.670   2.634   2.844
36986W        W37467  15.890   1.274   2.069
36987W        W37468  16.182   2.058   1.712
36988W        W37469  17.179   2.831   3.560
36989W        W37470  16.258   2.151   3.570
36990W        W37471  16.239   1.867   3.048
36991W        W37472  14.648   1.258   3.570
36992W        W37473  17.480   2.793   3.169
36993W        W37474  15.061   0.375   1.167
36994W        W37475  15.588   2.633   2.166
36995W        W37476  17.464   0.816   2.023
36996W        W37477  16.181   3.277   2.177
36997W        W37478  15.084   3.529   0.369
36998W        W37479  15.477   3.575   1.045
36999W        W37480  15.274   0.329   2.471
37000W        W37481  17.302   1.769   1.205
37001W        W37482  17.268   1.457   0.232
37002W        W37483  16.476   2.601   2.372
37003W        W37484  16.282   0.931   1.571
37004W        W37485  16.882   3.018   2.565
37005W        W37486  16.655   0.467   1.003
37006W        W37487  15.312   3.161   0.686
37007W        W37488  14.683   0.660   1.285
37008W        W37489  17.469   1.267   1.759
37009W        W37490  14.927   2.884   1.674
37010W        W37491  16.268   3.234   0.544
37011W        W37492  17.660   1.260   0.008
37012W        W37493  14.683   3.018   2.172
37013W        W37494  15.474   2.590   2.652
37014W        W37495  15.847   1.950   1.271
37015W        W37496  15.869   0.355   2.364
37016W        W37497  15.317   1.989   0.129
37017W        W37498  14.972   1.022   0.308
37018W        W37499  15.034   2.978   1.102
37019W        W37500  16.165   2.461   1.350
37020W        W37501  17.497   3.320   3.064
37021W        W37502  16.423   0.962   0.748
37022W        W37503  17.483   1.213   3.118
37023W        W37504  16.823   2.161   2.736
37024W        W37505  14.589   1.712   0.942
37025W        W37506  15.700   2.127   2.515
37026W        W37507  16.904   1.391   0.893
37027W        W37508  15.124   1.301   2.471
37028W        W37509  15.109   1.177   3.393
37029W        W37510  14.999   0.094   1.552
37030W        W37511  16.767   0.441   2.113
37031W        W37512  16.415   0.626   3.276
37032W        W37513  16.770   0.775   0.454
37033W        W37514  16.920   0.249   3.247
37034W        W37515  17.939   2.550   3.369
37035W        W37516  17.369   0.717   2.965
37036W        W37517  17.169   0.655   1.235
37037W        W37518  17.562   1.789   3.639
37038W        W37519  15.302   3.365   1.625
37039W        W37520  15.960   1.082   0.611
37040W        W37521  15.529   0.366   3.275
37041W        W37522  17.581   0.850   0.956
37042W        W37523  15.691   3.549   3.372
37043W        W37524  15.617   0.085   0.607
37044W        W37525  14.995   2.071   1.789
37045W        W37526  16.912   0.658   0.019
37046W        W37527  16.530   1.396   3.043
37047W        W37528  16.623   2.735   0.746
37048W        W37529  17.023   2.029   3.486
37049W        W37530  16.697   0.006   1.795
37050W        W37531  15.309   0.909   1.858
37051W        W37532  14.863   2.109   2.632
37052W        W37533  16.722   3.302   1.338
37053W        W37534  16.553   3.246   2.977
37054W        W37535  16.331   1.788   1.243
37055W        W37536  16.332   2.134   2.578
37056W        W37537  16.549   1.020   2.023
37057W        W37538  17.401   1.318   0.861
37058W        W37539  17.688   1.051   0.503
37059W        W37540  17.497   3.091   0.892
37060W        W37541  17.331   2.694   1.688
37061W        W37542  17.227   1.773   0.666
37062W        W37543  16.660   1.983   1.652
37063W        W37544  17.541   1.771   1.719
37064W        W37545  14.916   0.786   2.143
37065W        W37546  17.694   1.838   2.970
37066W        W37547  15.975   2.900   1.518
37067W        W37548  16.982   3.433   2.842
37068W        W37549  16.976   0.763   2.606
37069W        W37550  16.183   3.471   2.667
37070W        W37551  17.671   1.744   2.434
37071W        W37552  14.654   1.065   2.472
37072W        W37553  17.514   0.860   1.490
37073W        W37554  16.810   2.710   1.485
37074W        W37555  16.066   3.301   1.098
37075W        W37556  15.181   0.481   0.356
37076W        W37557  16.285   0.135   2.166
37077W        W37558  15.313   3.255   0.014
37078W        W37559  15.687   1.721   0.765
37079W        W37560  16.341   2.350   3.078
37080W        W37561  16.171   0.708   1.068
37081W        W37562  17.527   0.305   1.496
37082W        W37563  17.247   3.587   1.824
37083W        W37564  16.659   3.235   2.164
37084W        W37565  16.055   2.272   2.125
37085W        W37566  15.519   0.498   1.020
37086W        W37567  15.524   0.726   0.045
37087W        W37568  16.325   1.335   2.439
37088W        W37569  17.173   0.201   2.309
37089W        W37570  14.593   2.044   2.194
37090W        W37571  16.297   1.862   0.352
37091W        W37572  15.565   0.177   0.122
37092W        W37573  16.303   1.258   1.173
37093W        W37574  17.273   0.234   2.872
37094W        W37575  15.861   2.246   2.981
37095W        W37576  16.665   2.028   3.198
37096W        W37577  16.566   0.198   3.596
37097W        W37578  15.788   0.814   1.989
37098W        W37579  15.214   0.770   1.387
37099W        W37580  15.000   3.482   1.063
37100W        W37581  15.367   2.297   0.547
37101W        W37582  17.047   1.682   1.768
37102W        W37583  17.327   1.481   2.167
37103W        W37584  16.532   2.155   2.101
37104W        W37585  17.002   2.529   0.233
37105W        W37586  16.674   0.550   1.561
37106W        W37587  14.647   3.417   2.860
37107W        W37588  15.064   2.643   2.392
37108W        W37589  14.631   3.489   0.624
37109W        W37590  16.530   0.759   2.430
37110W        W37591  15.893   2.782   0.279
37111W        W37592  17.798   3.164   0.465
37112W        W37593  16.773   1.817   0.479
37113W        W37594  15.616   1.008   0.996
37114W        W37595  16.448   0.918   0.048
37115W        W37596  17.032   2.483   3.226
37116W        W37597  17.385   0.389   0.843
37117W        W37598  14.715   0.237   0.291
37118W        W37599  16.001   2.556   2.581
37119W        W37600  15.800   2.472   1.673
37120W        W37601  15.542   2.424   0.071
37121W        W37602  14.783   2.665   0.839
37122W        W37603  15.287   1.735   3.281
37123W        W37604  15.991   0.295   3.467
37124W        W37605  16.700   0.437   2.823
37125W        W37606  15.895   0.205   1.104
37126W        W37607  16.954   0.282   0.609
37127W        W37608  14.899   0.214   2.186
37128W        W37609  14.947   1.177   1.556
37129W        W37610  17.636   0.285   1.962
37130W        W37611  15.058   0.783   0.776
37131W        W37612  17.629   0.471   2.392
37132W        W37613  15.317   0.432   1.896
37133W        W37614  16.431   1.004   2.836
37134W        W37615  14.579   0.694   0.314
37135W        W37616  15.365   2.083   2.875
37136W        W37617  16.723   1.481   2.054
37137W        W37618  16.590   3.560   0.350
37138W        W37619  14.736   2.067   0.047
37139W        W37620  15.471   2.478   3.173
37140W        W37621  14.992   1.645   2.804
37141W        W37622  15.983   1.750   2.598
37142W        W37623  17.000   2.251   0.636
37143W        W37624  17.474   3.551   0.331
37144W        W37625  16.651   1.541   3.473
37145W        W37626  14.981   2.508   3.513
37146W        W37627  16.213   3.488   3.563
37147W        W37628  16.068   0.117   0.290
37148W        W37629  17.607   2.716   0.233
37149W        W37630  15.376   0.809   3.119
37150W        W37631  15.810   2.803   2.981
37151W        W37632  17.147   3.453   0.747
37152W        W37633  17.386   2.072   2.114
37153W        W37634  15.636   0.488   2.781
37154W        W37635  16.105   1.557   3.538
37155W        W37636  15.608   2.736   0.732
37156W        W37637  17.363   2.234   0.996
37157W        W37638  15.131   0.860   2.720
37158W        W37639  16.460   2.922   1.184
37159W        W37640  16.432   0.115   3.084
37160W        W37641  17.212   2.820   2.163
37161W        W37642  17.515   3.164   1.871
37162W        W37643  16.734   2.966   0.299
37163W        W37644  14.744   2.858   3.141
37164W        W37645  15.487   0.850   2.379
37165W        W37646  15.457   0.198   1.489
37166W        W37647  17.078   1.040   2.181
37167W        W37648  15.876   2.211   0.381
37168W        W37649  15.201   2.911   3.303
37169W        W37650  17.588   3.593   1.100
37170W        W37651  15.687   0.613   1.545
37171W        W37652  15.456   2.106   1.635
37172W        W37653  15.769   3.517   2.385
37173W        W37654  16.995   1.801   2.350
37174W        W37655  14.844   1.599   0.265
37175W        W37656  15.954   0.100   2.984
37176W        W37657  17.660   2.902   1.442
37177W        W37658  17.689   1.458   1.347
37178W        W37659  15.806   1.131   1.563
37179W        W37660  16.051   1.393   2.887
37180W        W37661  17.162   2.546   2.750
37181W        W37662  15.812   1.000   2.862
37182W        W37663  15.791   3.466   1.478
37183W        W37664  15.108   3.425   3.112
37184W        W37665  15.220   2.786   0.242
37185W        W37666  17.737   2.544   1.052
37186W        W37667  15.341   1.336   2.938
37187W        W37668  15.859   2.323   0.890
37188W        W37669  16.958   1.705   2.971
37189W        W37670  16.849   1.333   2.515
37190W        W37671  15.409   1.705   2.544
37191W        W37672  17.619   3.593   2.373
37192W        W37673  17.410   0.227   3.367
37193W        W37674  15.074   0.377   2.954
37194W        W37675  15.413   1.400   2.007
37195W        W37676  15.782   1.214   0.129
37196W        W37677  14.585   2.973   2.674
37197W        W37678  16.170   1.682   2.117
37198W        W37679  15.993   0.707   0.222
37199W        W37680  15.128   1.523   1.003
37200W        W37681  14.899   3.375   2.440
37201W        W37682  17.694   1.601   0.548
37202W        W37683  17.225   2.726   1.197
37203W        W37684  14.823   1.650   3.374
37204W        W37685  17.309   2.589   0.681
37205W        W37686  16.211   1.647   0.766
37206W        W37687  17.398   0.451   0.289
37207W        W37688  17.463   1.058   2.475
37208W        W37689  15.172   1.651   1.682
37209W        W37690  15.466   2.590   1.331
37210W        W37691  17.229   1.210   1.296
37211W        W37692  16.252   0.589   1.992
37212W        W37693  14.671   3.317   1.440
37213W        W37694  15.180   2.504   0.976
37214W        W37695  15.095   0.121   3.529
37215W        W37696  16.214   2.974   3.631
37216W        W37697  17.323   2.119   0.301
37217W        W37698  16.618   3.640   2.513
37218W        W37699  17.475   2.362   3.550
37219W        W37700  16.290   0.072   0.830
37220W        W37701  17.003   0.941   1.689
37221W        W37702  14.689   2.528   2.021
37222W        W37703  15.942   0.490   0.662
37223W        W37704  15.746   1.974   3.511
37224W        W37705  16.740   0.955   1.225
37225W        W37706  16.945   2.365   2.347
37226W        W37707  15.099   2.970   2.782
37227W        W37708  15.690   2.953   3.505
37228W        W37709  15.541   0.750   0.519
37229W        W37710  17.058   0.892   0.844
37230W        W37711  17.016   3.000   3.081
37231W        W37712  15.701   1.592   1.680
37232W        W37713  15.356   3.290   2.545
37233W        W37714  14.964   2.079   3.142
37234W        W37715  16.959   2.341   1.830
37235W        W37716  15.395   1.990   1.072
37236W        W37717  15.766   2.997   2.467
37237W        W37718  16.144   0.416   1.508
37238W        W37719  14.755   2.400   0.438
37239W        W37720  16.274   1.351   0.308
37240W        W37721  14.920   1.900   1.327
37241W        W37722  16.210   0.542   2.791
37242W        W37723  16.629   3.254   3.469
37243W        W37724  17.595   3.146   3.602
37244W        W37725  15.334   3.602   2.080
37245W        W37726  16.723   1.491   1.467
37246W        W37727  16.490   0.103   1.357
37247W        W37728  15.549   3.087   1.194
37248W        W37729  16.048   0.828   2.419
37249W        W37730  15.748   0.197   1.888
37250W        W37731  14.811   3.019   0.436
37251W        W37732  16.627   2.383   1.154
37252W        W37733  15.502   3.178   3.033
37253W        W37734  14.979   2.001   0.729
37254W        W37735  14.864   0.544   1.728
37255W        W37736  16.412   2.509   1.785
37256W        W37737  14.664   0.363   0.805
37257W        W37738  17.328   1.569   2.732
37258W        W37739  17.205   0.955   0.304
37259W        W37740  16.383   3.111   1.783
37260W        W37741  15.795   3.215   0.694
37261W        W37742  17.077   0.118   0.124
37262W        W37743  14.877   3.378   1.865
37263W        W37744  17.074   1.136   3.500
37264W        W37745  15.057   0.666   3.499
37265W        W37746  14.788   1.266   0.832
37266W        W37747  15.479   1.255   0.557
37267W        W37748  17.242   1.582   3.374
37268W        W37749  15.585   1.863   2.083
37269W        W37750  17.059   0.149   1.203
37270W        W37751  16.190   3.580   1.706
37271W        W37752  17.404   3.042   2.643
37272W        W37753  16.988   3.191   1.754
37273W        W37754  17.007   2.171   1.348
37274W        W37755  16.469   0.396   0.419
37275W        W37756  18.150   0.024   1.141
37276W        W37757  15.838   1.659   0.304
37277W        W37758  16.696   2.166   0.171
37278W        W37759  17.632   2.366   2.919
37279W        W37760  17.286   3.067   0.386
37280W        W37761  15.901   0.742   3.292
37281W        W37762  15.721   1.326   2.533
37282W        W37763  16.913   0.771   3.187
37283W        W37764  14.757   1.242   2.964
37284W        W37765  16.517   1.719   2.690
37285W        W37766  14.874   2.477   1.347
37286W        W37767  15.021   1.774   2.237
37287W        W37768  17.338   2.060   2.587
37288W        W37769  17.110   3.440   3.398
37289W        W37770  17.006   1.179   2.951
37290W        W37771  17.283   3.233   1.356
37291W        W37772  16.285   2.953   2.679
37292W        W37773  15.770   3.308   1.948
37293W        W37774  17.575   2.479   2.367
37294W        W37775  16.625   2.551   3.504
37295W        W37776  15.230   2.504   1.843
37296W        W37777  17.576   2.263   1.488
37297W        W37778  17.217   3.329   2.239
37298W        W37779  15.195   3.058   2.109
37299W        W37780  16.216   1.110   3.319
37300W        W37781  16.667   3.276   0.830
37301W        W37782  15.975   2.531   3.468
37302W        W37783  16.101   2.769   0.845
37303W        W37784  15.322   1.509   0.104
37304W        W37785  14.661   3.595   7.003
37305W        W37786  15.037   2.488   6.526
37306W        W37787  17.742   2.218   4.296
37307W        W37788  15.790   3.294   3.849
37308W        W37789  15.873   1.446   4.832
37309W        W37790  15.388   1.294   4.996
37310W        W37791  16.379   2.109   4.430
37311W        W37792  16.054   3.201   6.785
37312W        W37793  14.703   0.762   6.748
37313W        W37794  15.465   0.042   6.550
37314W        W37795  17.159   0.430   5.437
37315W        W37796  16.808   1.301   4.007
37316W        W37797  17.378   0.735   7.098
37317W        W37798  14.744   0.527   6.223
37318W        W37799  14.843   3.146   7.244
37319W        W37800  16.365   2.536   3.976
37320W        W37801  14.797   1.319   5.669
37321W        W37802  15.690   1.210   6.906
37322W        W37803  16.221   1.445   5.291
37323W        W37804  16.767   2.784   5.660
37324W        W37805  15.267   2.218   5.892
37325W        W37806  14.626   1.746   5.463
37326W        W37807  15.662   1.718   6.655
37327W        W37808  15.549   2.945   5.354
37328W        W37809  16.670   2.634   6.488
37329W        W37810  15.890   1.274   5.713
37330W        W37811  16.182   2.058   5.356
37331W        W37812  17.179   2.831   7.204
37332W        W37813  16.258   2.151   7.214
37333W        W37814  16.239   1.867   6.692
37334W        W37815  14.648   1.258   7.214
37335W        W37816  17.480   2.793   6.813
37336W        W37817  15.061   0.375   4.811
37337W        W37818  15.588   2.633   5.810
37338W        W37819  17.464   0.816   5.667
37339W        W37820  16.181   3.277   5.821
37340W        W37821  15.084   3.529   4.013
37341W        W37822  15.477   3.575   4.689
37342W        W37823  15.274   0.329   6.115
37343W        W37824  17.302   1.769   4.849
37344W        W37825  17.268   1.457   3.876
37345W        W37826  16.476   2.601   6.016
37346W        W37827  16.282   0.931   5.215
37347W        W37828  16.882   3.018   6.209
37348W        W37829  16.655   0.467   4.647
37349W        W37830  15.312   3.161   4.330
37350W        W37831  14.683   0.660   4.929
37351W        W37832  17.469   1.267   5.403
37352W        W37833  14.927   2.884   5.318
37353W        W37834  16.268   3.234   4.188
37354W        W37835  14.683   3.018   5.816
37355W        W37836  15.474   2.590   6.296
37356W        W37837  15.847   1.950   4.915
37357W        W37838  15.869   0.355   6.008
37358W        W37839  15.317   1.989   3.773
37359W        W37840  14.972   1.022   3.952
37360W        W37841  15.034   2.978   4.746
37361W        W37842  16.165   2.461   4.994
37362W        W37843  17.497   3.320   6.708
37363W        W37844  16.423   0.962   4.392
37364W        W37845  17.483   1.213   6.762
37365W        W37846  16.823   2.161   6.380
37366W        W37847  14.589   1.712   4.586
37367W        W37848  15.700   2.127   6.159
37368W        W37849  16.904   1.391   4.537
37369W        W37850  16.781   1.881   4.641
37370W        W37851  15.124   1.301   6.115
37371W        W37852  14.999   0.094   5.196
37372W        W37853  16.767   0.441   5.757
37373W        W37854  16.770   0.775   4.098
37374W        W37855  16.920   0.249   6.891
37375W        W37856  17.939   2.550   7.013
37376W        W37857  17.369   0.717   6.609
37377W        W37858  17.169   0.655   4.879
37378W        W37859  17.562   1.789   7.283
37379W        W37860  15.302   3.365   5.269
37380W        W37861  15.960   1.082   4.255
37381W        W37862  15.529   0.366   6.919
37382W        W37863  17.581   0.850   4.600
37383W        W37864  15.691   3.549   7.016
37384W        W37865  15.617   0.085   4.251
37385W        W37866  14.995   2.071   5.433
37386W        W37867  16.912   0.658   3.663
37387W        W37868  16.530   1.396   6.687
37388W        W37869  16.623   2.735   4.390
37389W        W37870  17.023   2.029   7.130
37390W        W37871  16.697   0.006   5.439
37391W        W37872  15.309   0.909   5.502
37392W        W37873  14.863   2.109   6.276
37393W        W37874  16.722   3.302   4.982
37394W        W37875  16.553   3.246   6.621
37395W        W37876  16.331   1.788   4.887
37396W        W37877  16.332   2.134   6.222
37397W        W37878  16.549   1.020   5.667
37398W        W37879  17.401   1.318   4.505
37399W        W37880  17.688   1.051   4.147
37400W        W37881  17.497   3.091   4.536
37401W        W37882  17.331   2.694   5.332
37402W        W37883  17.227   1.773   4.310
37403W        W37884  16.660   1.983   5.296
37404W        W37885  17.541   1.771   5.363
37405W        W37886  14.916   0.786   5.787
37406W        W37887  17.694   1.838   6.614
37407W        W37888  15.975   2.900   5.162
37408W        W37889  16.982   3.433   6.486
37409W        W37890  16.976   0.763   6.250
37410W        W37891  16.183   3.471   6.311
37411W        W37892  17.671   1.744   6.078
37412W        W37893  14.654   1.065   6.116
37413W        W37894  17.514   0.860   5.134
37414W        W37895  16.810   2.710   5.129
37415W        W37896  16.066   3.301   4.742
37416W        W37897  15.181   0.481   4.000
37417W        W37898  16.285   0.135   5.810
37418W        W37899  15.313   3.255   3.658
37419W        W37900  15.687   1.721   4.409
37420W        W37901  16.341   2.350   6.722
37421W        W37902  16.171   0.708   4.712
37422W        W37903  17.527   0.305   5.140
37423W        W37904  17.247   3.587   5.468
37424W        W37905  16.659   3.235   5.808
37425W        W37906  15.519   0.498   4.664
37426W        W37907  16.041   2.795   5.624
37427W        W37908  15.524   0.726   3.689
37428W        W37909  16.325   1.335   6.083
37429W        W37910  17.173   0.201   5.953
37430W        W37911  14.593   2.044   5.838
37431W        W37912  16.297   1.862   3.996
37432W        W37913  15.565   0.177   3.766
37433W        W37914  16.303   1.258   4.817
37434W        W37915  17.273   0.234   6.516
37435W        W37916  15.861   2.246   6.625
37436W        W37917  16.665   2.028   6.842
37437W        W37918  17.282   2.058   6.735
37438W        W37919  16.566   0.198   7.240
37439W        W37920  15.788   0.814   5.633
37440W        W37921  15.214   0.770   5.031
37441W        W37922  15.000   3.482   4.707
37442W        W37923  16.332   2.812   6.832
37443W        W37924  15.367   2.297   4.191
37444W        W37925  17.047   1.682   5.412
37445W        W37926  17.327   1.481   5.811
37446W        W37927  16.532   2.155   5.745
37447W        W37928  17.002   2.529   3.877
37448W        W37929  16.674   0.550   5.205
37449W        W37930  14.647   3.417   6.504
37450W        W37931  15.064   2.643   6.036
37451W        W37932  14.631   3.489   4.268
37452W        W37933  16.530   0.759   6.074
37453W        W37934  15.893   2.782   3.923
37454W        W37935  17.798   3.164   4.109
37455W        W37936  16.773   1.817   4.123
37456W        W37937  15.616   1.008   4.640
37457W        W37938  16.448   0.918   3.692
37458W        W37939  17.032   2.483   6.870
37459W        W37940  17.385   0.389   4.487
37460W        W37941  14.715   0.237   3.935
37461W        W37942  16.001   2.556   6.225
37462W        W37943  15.800   2.472   5.317
37463W        W37944  15.542   2.424   3.715
37464W        W37945  14.783   2.665   4.483
37465W        W37946  15.287   1.735   6.925
37466W        W37947  15.991   0.295   7.111
37467W        W37948  16.700   0.437   6.467
37468W        W37949  15.895   0.205   4.748
37469W        W37950  16.954   0.282   4.253
37470W        W37951  14.899   0.214   5.830
37471W        W37952  14.947   1.177   5.200
37472W        W37953  17.636   0.285   5.606
37473W        W37954  15.058   0.783   4.420
37474W        W37955  17.629   0.471   6.036
37475W        W37956  15.317   0.432   5.540
37476W        W37957  16.431   1.004   6.480
37477W        W37958  15.365   2.083   6.519
37478W        W37959  16.723   1.481   5.698
37479W        W37960  16.590   3.560   3.994
37480W        W37961  14.736   2.067   3.691
37481W        W37962  15.471   2.478   6.817
37482W        W37963  14.992   1.645   6.448
37483W        W37964  15.983   1.750   6.242
37484W        W37965  17.000   2.251   4.280
37485W        W37966  17.474   3.551   3.975
37486W        W37967  16.651   1.541   7.117
37487W        W37968  14.981   2.508   7.157
37488W        W37969  16.213   3.488   7.207
37489W        W37970  16.068   0.117   3.934
37490W        W37971  17.607   2.716   3.877
37491W        W37972  15.376   0.809   6.763
37492W        W37973  15.810   2.803   6.625
37493W        W37974  17.147   3.453   4.391
37494W        W37975  17.386   2.072   5.758
37495W        W37976  15.636   0.488   6.425
37496W        W37977  16.105   1.557   7.182
37497W        W37978  15.608   2.736   4.376
37498W        W37979  17.363   2.234   4.640
37499W        W37980  15.131   0.860   6.364
37500W        W37981  16.460   2.922   4.828
37501W        W37982  16.432   0.115   6.728
37502W        W37983  17.212   2.820   5.807
37503W        W37984  17.515   3.164   5.515
37504W        W37985  16.734   2.966   3.943
37505W        W37986  14.744   2.858   6.785
37506W        W37987  15.487   0.850   6.023
37507W        W37988  15.457   0.198   5.133
37508W        W37989  17.078   1.040   5.825
37509W        W37990  15.876   2.211   4.025
37510W        W37991  15.201   2.911   6.947
37511W        W37992  17.588   3.593   4.744
37512W        W37993  15.687   0.613   5.189
37513W        W37994  15.456   2.106   5.279
37514W        W37995  15.769   3.517   6.029
37515W        W37996  16.995   1.801   5.994
37516W        W37997  14.844   1.599   3.909
37517W        W37998  15.954   0.100   6.628
37518W        W37999  17.660   2.902   5.086
37519W        W38000  17.689   1.458   4.991
37520W        W38001  15.806   1.131   5.207
37521W        W38002  16.051   1.393   6.531
37522W        W38003  17.162   2.546   6.394
37523W        W38004  15.812   1.000   6.506
37524W        W38005  15.791   3.466   5.122
37525W        W38006  15.108   3.425   6.756
37526W        W38007  15.220   2.786   3.886
37527W        W38008  17.737   2.544   4.696
37528W        W38009  15.341   1.336   6.582
37529W        W38010  15.859   2.323   4.534
37530W        W38011  16.958   1.705   6.615
37531W        W38012  16.849   1.333   6.159
37532W        W38013  15.409   1.705   6.188
37533W        W38014  17.619   3.593   6.017
37534W        W38015  17.410   0.227   7.011
37535W        W38016  15.074   0.377   6.598
37536W        W38017  15.413   1.400   5.651
37537W        W38018  15.782   1.214   3.773
37538W        W38019  14.585   2.973   6.318
37539W        W38020  16.170   1.682   5.761
37540W        W38021  15.993   0.707   3.866
37541W        W38022  15.128   1.523   4.647
37542W        W38023  14.899   3.375   6.084
37543W        W38024  17.694   1.601   4.192
37544W        W38025  17.225   2.726   4.841
37545W        W38026  14.823   1.650   7.018
37546W        W38027  17.309   2.589   4.325
37547W        W38028  16.211   1.647   4.410
37548W        W38029  17.398   0.451   3.933
37549W        W38030  17.463   1.058   6.119
37550W        W38031  15.172   1.651   5.326
37551W        W38032  15.466   2.590   4.975
37552W        W38033  17.229   1.210   4.940
37553W        W38034  16.252   0.589   5.636
37554W        W38035  14.671   3.317   5.084
37555W        W38036  15.180   2.504   4.620
37556W        W38037  15.095   0.121   7.173
37557W        W38038  17.323   2.119   3.945
37558W        W38039  16.618   3.640   6.157
37559W        W38040  17.475   2.362   7.194
37560W        W38041  16.290   0.072   4.474
37561W        W38042  17.003   0.941   5.333
37562W        W38043  14.689   2.528   5.665
37563W        W38044  15.942   0.490   4.306
37564W        W38045  15.746   1.974   7.155
37565W        W38046  16.740   0.955   4.869
37566W        W38047  16.945   2.365   5.991
37567W        W38048  15.099   2.970   6.426
37568W        W38049  15.690   2.953   7.149
37569W        W38050  15.541   0.750   4.163
37570W        W38051  17.058   0.892   4.488
37571W        W38052  17.016   3.000   6.725
37572W        W38053  15.356   3.290   6.189
37573W        W38054  14.964   2.079   6.786
37574W        W38055  16.959   2.341   5.474
37575W        W38056  15.395   1.990   4.716
37576W        W38057  15.766   2.997   6.111
37577W        W38058  16.144   0.416   5.152
37578W        W38059  14.755   2.400   4.082
37579W        W38060  16.274   1.351   3.952
37580W        W38061  14.920   1.900   4.971
37581W        W38062  16.629   3.254   7.113
37582W        W38063  17.595   3.146   7.246
37583W        W38064  15.334   3.602   5.724
37584W        W38065  16.723   1.491   5.111
37585W        W38066  16.490   0.103   5.001
37586W        W38067  15.549   3.087   4.838
37587W        W38068  16.048   0.828   6.063
37588W        W38069  15.748   0.197   5.532
37589W        W38070  14.811   3.019   4.080
37590W        W38071  16.627   2.383   4.798
37591W        W38072  15.502   3.178   6.677
37592W        W38073  14.979   2.001   4.373
37593W        W38074  14.864   0.544   5.372
37594W        W38075  16.412   2.509   5.429
37595W        W38076  14.664   0.363   4.449
37596W        W38077  17.328   1.569   6.376
37597W        W38078  17.205   0.955   3.948
37598W        W38079  16.383   3.111   5.427
37599W        W38080  15.795   3.215   4.338
37600W        W38081  17.077   0.118   3.768
37601W        W38082  14.877   3.378   5.509
37602W        W38083  17.074   1.136   7.144
37603W        W38084  15.057   0.666   7.143
37604W        W38085  14.788   1.266   4.476
37605W        W38086  15.479   1.255   4.201
37606W        W38087  17.242   1.582   7.018
37607W        W38088  15.585   1.863   5.727
37608W        W38089  17.059   0.149   4.847
37609W        W38090  16.190   3.580   5.350
37610W        W38091  17.404   3.042   6.287
37611W        W38092  16.988   3.191   5.398
37612W        W38093  17.007   2.171   4.992
37613W        W38094  16.469   0.396   4.063
37614W        W38095  18.150   0.024   4.785
37615W        W38096  15.838   1.659   3.948
37616W        W38097  16.696   2.166   3.815
37617W        W38098  17.632   2.366   6.563
37618W        W38099  17.286   3.067   4.030
37619W        W38100  15.901   0.742   6.936
37620W        W38101  15.721   1.326   6.177
37621W        W38102  16.913   0.771   6.831
37622W        W38103  14.757   1.242   6.608
37623W        W38104  16.517   1.719   6.334
37624W        W38105  14.874   2.477   4.991
37625W        W38106  15.021   1.774   5.881
37626W        W38107  17.338   2.060   6.231
37627W        W38108  17.110   3.440   7.042
37628W        W38109  17.283   3.233   5.000
37629W        W38110  16.285   2.953   6.323
37630W        W38111  15.770   3.308   5.592
37631W        W38112  17.575   2.479   6.011
37632W        W38113  16.625   2.551   7.148
37633W        W38114  15.230   2.504   5.487
37634W        W38115  17.576   2.263   5.132
37635W        W38116  17.217   3.329   5.883
37636W        W38117  15.195   3.058   5.753
37637W        W38118  16.216   1.110   6.963
37638W        W38119  16.667   3.276   4.474
37639W        W38120  15.975   2.531   7.112
37640W        W38121  16.101   2.769   4.489
37641W        W38122  15.322   1.509   3.748
37642W        W38123  14.661   3.595  10.648
37643W        W38124  17.742   2.218   7.941
37644W        W38125  15.790   3.294   7.494
37645W        W38126  15.873   1.446   8.477
37646W        W38127  15.388   1.294   8.641
37647W        W38128  16.379   2.109   8.075
37648W        W38129  16.054   3.201  10.430
37649W        W38130  14.703   0.762  10.393
37650W        W38131  15.465   0.042  10.195
37651W        W38132  17.159   0.430   9.082
37652W        W38133  16.808   1.301   7.652
37653W        W38134  17.378   0.735  10.743
37654W        W38135  14.744   0.527   9.868
37655W        W38136  14.843   3.146  10.889
37656W        W38137  16.365   2.536   7.621
37657W        W38138  14.797   1.319   9.314
37658W        W38139  15.690   1.210  10.551
37659W        W38140  16.221   1.445   8.936
37660W        W38141  16.767   2.784   9.305
37661W        W38142  15.267   2.218   9.537
37662W        W38143  14.626   1.746   9.108
37663W        W38144  15.662   1.718  10.300
37664W        W38145  15.549   2.945   8.999
37665W        W38146  16.670   2.634  10.133
37666W        W38147  15.890   1.274   9.358
37667W        W38148  16.182   2.058   9.001
37668W        W38149  17.179   2.831  10.849
37669W        W38150  16.258   2.151  10.859
37670W        W38151  16.239   1.867  10.337
37671W        W38152  14.648   1.258  10.859
37672W        W38153  17.480   2.793  10.458
37673W        W38154  15.061   0.375   8.456
37674W        W38155  15.588   2.633   9.455
37675W        W38156  17.464   0.816   9.312
37676W        W38157  16.181   3.277   9.466
37677W        W38158  15.084   3.529   7.658
37678W        W38159  15.477   3.575   8.334
37679W        W38160  15.274   0.329   9.760
37680W        W38161  17.302   1.769   8.494
37681W        W38162  17.268   1.457   7.521
37682W        W38163  16.476   2.601   9.661
37683W        W38164  16.282   0.931   8.860
37684W        W38165  16.882   3.018   9.854
37685W        W38166  16.655   0.467   8.292
37686W        W38167  14.683   0.660   8.574
37687W        W38168  17.469   1.267   9.048
37688W        W38169  16.268   3.234   7.833
37689W        W38170  14.683   3.018   9.461
37690W        W38171  15.474   2.590   9.941
37691W        W38172  15.847   1.950   8.560
37692W        W38173  15.869   0.355   9.653
37693W        W38174  15.317   1.989   7.418
37694W        W38175  14.972   1.022   7.597
37695W        W38176  15.034   2.978   8.391
37696W        W38177  16.165   2.461   8.639
37697W        W38178  17.497   3.320  10.353
37698W        W38179  16.423   0.962   8.037
37699W        W38180  17.483   1.213  10.407
37700W        W38181  16.823   2.161  10.025
37701W        W38182  14.589   1.712   8.231
37702W        W38183  15.700   2.127   9.804
37703W        W38184  16.904   1.391   8.182
37704W        W38185  16.781   1.881   8.286
37705W        W38186  15.124   1.301   9.760
37706W        W38187  15.109   1.177  10.682
37707W        W38188  14.999   0.094   8.841
37708W        W38189  16.767   0.441   9.402
37709W        W38190  16.415   0.626  10.565
37710W        W38191  16.770   0.775   7.743
37711W        W38192  16.920   0.249  10.536
37712W        W38193  17.939   2.550  10.658
37713W        W38194  17.369   0.717  10.254
37714W        W38195  17.169   0.655   8.524
37715W        W38196  17.562   1.789  10.928
37716W        W38197  15.302   3.365   8.914
37717W        W38198  15.960   1.082   7.900
37718W        W38199  15.529   0.366  10.564
37719W        W38200  17.581   0.850   8.245
37720W        W38201  15.691   3.549  10.661
37721W        W38202  15.617   0.085   7.896
37722W        W38203  14.995   2.071   9.078
37723W        W38204  16.912   0.658   7.308
37724W        W38205  16.530   1.396  10.332
37725W        W38206  16.623   2.735   8.035
37726W        W38207  17.023   2.029  10.775
37727W        W38208  16.697   0.006   9.084
37728W        W38209  15.309   0.909   9.147
37729W        W38210  14.863   2.109   9.921
37730W        W38211  16.722   3.302   8.627
37731W        W38212  16.553   3.246  10.266
37732W        W38213  16.331   1.788   8.532
37733W        W38214  16.332   2.134   9.867
37734W        W38215  16.549   1.020   9.312
37735W        W38216  17.401   1.318   8.150
37736W        W38217  17.688   1.051   7.792
37737W        W38218  17.497   3.091   8.181
37738W        W38219  17.331   2.694   8.977
37739W        W38220  17.227   1.773   7.955
37740W        W38221  16.660   1.983   8.941
37741W        W38222  17.541   1.771   9.008
37742W        W38223  14.916   0.786   9.432
37743W        W38224  17.694   1.838  10.259
37744W        W38225  15.975   2.900   8.807
37745W        W38226  16.982   3.433  10.131
37746W        W38227  16.976   0.763   9.895
37747W        W38228  16.183   3.471   9.956
37748W        W38229  17.671   1.744   9.723
37749W        W38230  14.654   1.065   9.761
37750W        W38231  17.514   0.860   8.779
37751W        W38232  16.810   2.710   8.774
37752W        W38233  16.066   3.301   8.387
37753W        W38234  15.181   0.481   7.645
37754W        W38235  16.285   0.135   9.455
37755W        W38236  15.313   3.255   7.303
37756W        W38237  15.687   1.721   8.054
37757W        W38238  16.341   2.350  10.367
37758W        W38239  16.171   0.708   8.357
37759W        W38240  17.527   0.305   8.785
37760W        W38241  17.247   3.587   9.113
37761W        W38242  16.659   3.235   9.453
37762W        W38243  16.055   2.272   9.414
37763W        W38244  15.519   0.498   8.309
37764W        W38245  16.041   2.795   9.269
37765W        W38246  15.524   0.726   7.334
37766W        W38247  16.325   1.335   9.728
37767W        W38248  17.173   0.201   9.598
37768W        W38249  14.593   2.044   9.483
37769W        W38250  16.297   1.862   7.641
37770W        W38251  15.565   0.177   7.411
37771W        W38252  16.303   1.258   8.462
37772W        W38253  17.273   0.234  10.161
37773W        W38254  15.861   2.246  10.270
37774W        W38255  16.665   2.028  10.487
37775W        W38256  17.282   2.058  10.380
37776W        W38257  16.566   0.198  10.885
37777W        W38258  15.788   0.814   9.278
37778W        W38259  15.214   0.770   8.676
37779W        W38260  15.000   3.482   8.352
37780W        W38261  16.332   2.812  10.477
37781W        W38262  15.367   2.297   7.836
37782W        W38263  17.047   1.682   9.057
37783W        W38264  17.327   1.481   9.456
37784W        W38265  16.532   2.155   9.390
37785W        W38266  17.002   2.529   7.522
37786W        W38267  16.674   0.550   8.850
37787W        W38268  14.647   3.417  10.149
37788W        W38269  15.064   2.643   9.681
37789W        W38270  14.631   3.489   7.913
37790W        W38271  16.530   0.759   9.719
37791W        W38272  15.893   2.782   7.568
37792W        W38273  17.798   3.164   7.754
37793W        W38274  16.773   1.817   7.768
37794W        W38275  15.616   1.008   8.285
37795W        W38276  16.448   0.918   7.337
37796W        W38277  17.032   2.483  10.515
37797W        W38278  17.385   0.389   8.132
37798W        W38279  14.715   0.237   7.580
37799W        W38280  16.001   2.556   9.870
37800W        W38281  15.800   2.472   8.962
37801W        W38282  15.542   2.424   7.360
37802W        W38283  14.783   2.665   8.128
37803W        W38284  15.287   1.735  10.570
37804W        W38285  15.991   0.295  10.756
37805W        W38286  16.700   0.437  10.112
37806W        W38287  15.895   0.205   8.393
37807W        W38288  16.954   0.282   7.898
37808W        W38289  14.899   0.214   9.475
37809W        W38290  14.947   1.177   8.845
37810W        W38291  17.636   0.285   9.251
37811W        W38292  15.058   0.783   8.065
37812W        W38293  17.629   0.471   9.681
37813W        W38294  15.317   0.432   9.185
37814W        W38295  16.431   1.004  10.125
37815W        W38296  14.579   0.694   7.603
37816W        W38297  15.365   2.083  10.164
37817W        W38298  16.723   1.481   9.343
37818W        W38299  16.590   3.560   7.639
37819W        W38300  14.736   2.067   7.336
37820W        W38301  15.471   2.478  10.462
37821W        W38302  14.992   1.645  10.093
37822W        W38303  15.983   1.750   9.887
37823W        W38304  17.000   2.251   7.925
37824W        W38305  17.474   3.551   7.620
37825W        W38306  16.651   1.541  10.762
37826W        W38307  14.981   2.508  10.802
37827W        W38308  16.213   3.488  10.852
37828W        W38309  16.068   0.117   7.579
37829W        W38310  17.607   2.716   7.522
37830W        W38311  15.376   0.809  10.408
37831W        W38312  15.810   2.803  10.270
37832W        W38313  17.147   3.453   8.036
37833W        W38314  17.386   2.072   9.403
37834W        W38315  15.636   0.488  10.070
37835W        W38316  16.105   1.557  10.827
37836W        W38317  15.608   2.736   8.021
37837W        W38318  17.363   2.234   8.285
37838W        W38319  15.131   0.860  10.009
37839W        W38320  16.460   2.922   8.473
37840W        W38321  16.432   0.115  10.373
37841W        W38322  17.212   2.820   9.452
37842W        W38323  17.515   3.164   9.160
37843W        W38324  16.734   2.966   7.588
37844W        W38325  14.744   2.858  10.430
37845W        W38326  15.487   0.850   9.668
37846W        W38327  15.457   0.198   8.778
37847W        W38328  17.078   1.040   9.470
37848W        W38329  15.876   2.211   7.670
37849W        W38330  15.201   2.911  10.592
37850W        W38331  17.588   3.593   8.389
37851W        W38332  15.687   0.613   8.834
37852W        W38333  15.456   2.106   8.924
37853W        W38334  15.769   3.517   9.674
37854W        W38335  16.995   1.801   9.639
37855W        W38336  14.844   1.599   7.554
37856W        W38337  15.954   0.100  10.273
37857W        W38338  17.660   2.902   8.731
37858W        W38339  17.689   1.458   8.636
37859W        W38340  15.806   1.131   8.852
37860W        W38341  16.051   1.393  10.176
37861W        W38342  17.162   2.546  10.039
37862W        W38343  15.812   1.000  10.151
37863W        W38344  15.791   3.466   8.767
37864W        W38345  15.108   3.425  10.401
37865W        W38346  15.220   2.786   7.531
37866W        W38347  17.737   2.544   8.341
37867W        W38348  15.341   1.336  10.227
37868W        W38349  15.859   2.323   8.179
37869W        W38350  16.958   1.705  10.260
37870W        W38351  16.849   1.333   9.804
37871W        W38352  15.409   1.705   9.833
37872W        W38353  17.619   3.593   9.662
37873W        W38354  17.410   0.227  10.656
37874W        W38355  15.074   0.377  10.243
37875W        W38356  15.413   1.400   9.296
37876W        W38357  15.782   1.214   7.418
37877W        W38358  14.585   2.973   9.963
37878W        W38359  16.170   1.682   9.406
37879W        W38360  15.993   0.707   7.511
37880W        W38361  15.128   1.523   8.292
37881W        W38362  14.899   3.375   9.729
37882W        W38363  17.694   1.601   7.837
37883W        W38364  17.225   2.726   8.486
37884W        W38365  17.309   2.589   7.970
37885W        W38366  16.211   1.647   8.055
37886W        W38367  17.398   0.451   7.578
37887W        W38368  17.463   1.058   9.764
37888W        W38369  15.172   1.651   8.971
37889W        W38370  15.466   2.590   8.620
37890W        W38371  17.229   1.210   8.585
37891W        W38372  16.252   0.589   9.281
37892W        W38373  14.671   3.317   8.729
37893W        W38374  15.180   2.504   8.265
37894W        W38375  15.095   0.121  10.818
37895W        W38376  16.214   2.974  10.920
37896W        W38377  17.323   2.119   7.590
37897W        W38378  16.618   3.640   9.802
37898W        W38379  17.475   2.362  10.839
37899W        W38380  16.290   0.072   8.119
37900W        W38381  17.003   0.941   8.978
37901W        W38382  14.689   2.528   9.310
37902W        W38383  15.942   0.490   7.951
37903W        W38384  15.746   1.974  10.800
37904W        W38385  16.740   0.955   8.514
37905W        W38386  16.945   2.365   9.636
37906W        W38387  15.099   2.970  10.071
37907W        W38388  15.690   2.953  10.794
37908W        W38389  15.541   0.750   7.808
37909W        W38390  17.058   0.892   8.133
37910W        W38391  17.016   3.000  10.370
37911W        W38392  15.701   1.592   8.969
37912W        W38393  15.356   3.290   9.834
37913W        W38394  14.964   2.079  10.431
37914W        W38395  16.959   2.341   9.119
37915W        W38396  15.395   1.990   8.361
37916W        W38397  15.766   2.997   9.756
37917W        W38398  16.144   0.416   8.797
37918W        W38399  14.755   2.400   7.727
37919W        W38400  16.274   1.351   7.597
37920W        W38401  14.920   1.900   8.616
37921W        W38402  16.210   0.542  10.080
37922W        W38403  16.629   3.254  10.758
37923W        W38404  17.595   3.146  10.891
37924W        W38405  15.334   3.602   9.369
37925W        W38406  16.723   1.491   8.756
37926W        W38407  16.490   0.103   8.646
37927W        W38408  15.549   3.087   8.483
37928W        W38409  16.048   0.828   9.708
37929W        W38410  15.748   0.197   9.177
37930W        W38411  14.811   3.019   7.725
37931W        W38412  16.627   2.383   8.443
37932W        W38413  15.502   3.178  10.322
37933W        W38414  14.979   2.001   8.018
37934W        W38415  14.864   0.544   9.017
37935W        W38416  16.412   2.509   9.074
37936W        W38417  14.664   0.363   8.094
37937W        W38418  17.328   1.569  10.021
37938W        W38419  17.205   0.955   7.593
37939W        W38420  16.383   3.111   9.072
37940W        W38421  15.795   3.215   7.983
37941W        W38422  17.077   0.118   7.413
37942W        W38423  14.877   3.378   9.154
37943W        W38424  17.074   1.136  10.789
37944W        W38425  14.788   1.266   8.121
37945W        W38426  15.479   1.255   7.846
37946W        W38427  17.242   1.582  10.663
37947W        W38428  15.585   1.863   9.372
37948W        W38429  17.059   0.149   8.492
37949W        W38430  16.190   3.580   8.995
37950W        W38431  17.404   3.042   9.932
37951W        W38432  16.988   3.191   9.043
37952W        W38433  17.007   2.171   8.637
37953W        W38434  16.469   0.396   7.708
37954W        W38435  18.150   0.024   8.430
37955W        W38436  15.838   1.659   7.593
37956W        W38437  16.696   2.166   7.460
37957W        W38438  17.632   2.366  10.208
37958W        W38439  17.286   3.067   7.675
37959W        W38440  15.901   0.742  10.581
37960W        W38441  16.913   0.771  10.476
37961W        W38442  14.757   1.242  10.253
37962W        W38443  16.517   1.719   9.979
37963W        W38444  14.874   2.477   8.636
37964W        W38445  15.021   1.774   9.526
37965W        W38446  17.338   2.060   9.876
37966W        W38447  17.110   3.440  10.687
37967W        W38448  17.006   1.179  10.240
37968W        W38449  17.283   3.233   8.645
37969W        W38450  16.285   2.953   9.968
37970W        W38451  15.770   3.308   9.237
37971W        W38452  17.575   2.479   9.656
37972W        W38453  16.625   2.551  10.793
37973W        W38454  15.230   2.504   9.132
37974W        W38455  17.576   2.263   8.777
37975W        W38456  17.217   3.329   9.528
37976W        W38457  15.195   3.058   9.398
37977W        W38458  16.216   1.110  10.608
37978W        W38459  16.667   3.276   8.119
37979W        W38460  15.975   2.531  10.757
37980W        W38461  16.101   2.769   8.134
37981W        W38462  15.322   1.509   7.393
37982W        W38463  14.661   3.595  14.292
37983W        W38464  15.037   2.488  13.815
37984W        W38465  17.742   2.218  11.585
37985W        W38466  15.790   3.294  11.138
37986W        W38467  15.873   1.446  12.121
37987W        W38468  15.388   1.294  12.285
37988W        W38469  16.379   2.109  11.719
37989W        W38470  16.054   3.201  14.074
37990W        W38471  14.703   0.762  14.037
37991W        W38472  15.465   0.042  13.839
37992W        W38473  17.159   0.430  12.726
37993W        W38474  16.808   1.301  11.296
37994W        W38475  17.378   0.735  14.387
37995W        W38476  14.744   0.527  13.512
37996W        W38477  14.843   3.146  14.533
37997W        W38478  16.365   2.536  11.265
37998W        W38479  14.797   1.319  12.958
37999W        W38480  15.690   1.210  14.195
38000W        W38481  16.221   1.445  12.580
38001W        W38482  16.767   2.784  12.949
38002W        W38483  15.267   2.218  13.181
38003W        W38484  14.626   1.746  12.752
38004W        W38485  15.662   1.718  13.944
38005W        W38486  15.549   2.945  12.643
38006W        W38487  16.670   2.634  13.777
38007W        W38488  15.890   1.274  13.002
38008W        W38489  16.182   2.058  12.645
38009W        W38490  17.179   2.831  14.493
38010W        W38491  16.258   2.151  14.503
38011W        W38492  16.239   1.867  13.981
38012W        W38493  14.648   1.258  14.503
38013W        W38494  17.480   2.793  14.102
38014W        W38495  15.061   0.375  12.100
38015W        W38496  15.588   2.633  13.099
38016W        W38497  17.464   0.816  12.956
38017W        W38498  16.181   3.277  13.110
38018W        W38499  15.084   3.529  11.302
38019W        W38500  15.477   3.575  11.978
38020W        W38501  15.274   0.329  13.404
38021W        W38502  17.302   1.769  12.138
38022W        W38503  17.268   1.457  11.165
38023W        W38504  16.476   2.601  13.305
38024W        W38505  16.282   0.931  12.504
38025W        W38506  16.882   3.018  13.498
38026W        W38507  16.655   0.467  11.936
38027W        W38508  15.312   3.161  11.619
38028W        W38509  14.683   0.660  12.218
38029W        W38510  17.469   1.267  12.692
38030W        W38511  14.927   2.884  12.607
38031W        W38512  16.268   3.234  11.477
38032W        W38513  14.683   3.018  13.105
38033W        W38514  15.474   2.590  13.585
38034W        W38515  15.847   1.950  12.204
38035W        W38516  15.869   0.355  13.297
38036W        W38517  14.972   1.022  11.241
38037W        W38518  15.034   2.978  12.035
38038W        W38519  16.165   2.461  12.283
38039W        W38520  17.497   3.320  13.997
38040W        W38521  16.423   0.962  11.681
38041W        W38522  17.483   1.213  14.051
38042W        W38523  16.823   2.161  13.669
38043W        W38524  14.589   1.712  11.875
38044W        W38525  15.700   2.127  13.448
38045W        W38526  16.904   1.391  11.826
38046W        W38527  16.781   1.881  11.930
38047W        W38528  15.124   1.301  13.404
38048W        W38529  15.109   1.177  14.326
38049W        W38530  14.999   0.094  12.485
38050W        W38531  16.767   0.441  13.046
38051W        W38532  16.415   0.626  14.209
38052W        W38533  16.770   0.775  11.387
38053W        W38534  16.920   0.249  14.180
38054W        W38535  17.939   2.550  14.302
38055W        W38536  17.369   0.717  13.898
38056W        W38537  17.169   0.655  12.168
38057W        W38538  17.562   1.789  14.572
38058W        W38539  15.302   3.365  12.558
38059W        W38540  15.960   1.082  11.544
38060W        W38541  15.529   0.366  14.208
38061W        W38542  17.581   0.850  11.889
38062W        W38543  15.691   3.549  14.305
38063W        W38544  15.617   0.085  11.540
38064W        W38545  14.995   2.071  12.722
38065W        W38546  16.912   0.658  10.952
38066W        W38547  16.530   1.396  13.976
38067W        W38548  16.623   2.735  11.679
38068W        W38549  17.023   2.029  14.419
38069W        W38550  16.697   0.006  12.728
38070W        W38551  15.309   0.909  12.791
38071W        W38552  14.863   2.109  13.565
38072W        W38553  16.722   3.302  12.271
38073W        W38554  16.553   3.246  13.910
38074W        W38555  16.331   1.788  12.176
38075W        W38556  16.332   2.134  13.511
38076W        W38557  16.549   1.020  12.956
38077W        W38558  17.401   1.318  11.794
38078W        W38559  17.688   1.051  11.436
38079W        W38560  17.497   3.091  11.825
38080W        W38561  17.331   2.694  12.621
38081W        W38562  17.227   1.773  11.599
38082W        W38563  16.660   1.983  12.585
38083W        W38564  17.541   1.771  12.652
38084W        W38565  14.916   0.786  13.076
38085W        W38566  17.694   1.838  13.903
38086W        W38567  15.975   2.900  12.451
38087W        W38568  16.982   3.433  13.775
38088W        W38569  16.976   0.763  13.539
38089W        W38570  16.183   3.471  13.600
38090W        W38571  17.671   1.744  13.367
38091W        W38572  14.654   1.065  13.405
38092W        W38573  17.514   0.860  12.423
38093W        W38574  16.810   2.710  12.418
38094W        W38575  16.066   3.301  12.031
38095W        W38576  15.181   0.481  11.289
38096W        W38577  16.285   0.135  13.099
38097W        W38578  15.313   3.255  10.947
38098W        W38579  15.687   1.721  11.698
38099W        W38580  16.341   2.350  14.011
38100W        W38581  16.171   0.708  12.001
38101W        W38582  17.527   0.305  12.429
38102W        W38583  17.247   3.587  12.757
38103W        W38584  16.659   3.235  13.097
38104W        W38585  16.055   2.272  13.058
38105W        W38586  15.519   0.498  11.953
38106W        W38587  16.041   2.795  12.913
38107W        W38588  15.524   0.726  10.978
38108W        W38589  16.325   1.335  13.372
38109W        W38590  17.173   0.201  13.242
38110W        W38591  14.593   2.044  13.127
38111W        W38592  16.297   1.862  11.285
38112W        W38593  15.565   0.177  11.055
38113W        W38594  16.303   1.258  12.106
38114W        W38595  17.273   0.234  13.805
38115W        W38596  15.861   2.246  13.914
38116W        W38597  16.665   2.028  14.131
38117W        W38598  17.282   2.058  14.024
38118W        W38599  16.566   0.198  14.529
38119W        W38600  15.788   0.814  12.922
38120W        W38601  15.214   0.770  12.320
38121W        W38602  15.000   3.482  11.996
38122W        W38603  16.332   2.812  14.121
38123W        W38604  15.367   2.297  11.480
38124W        W38605  17.047   1.682  12.701
38125W        W38606  17.327   1.481  13.100
38126W        W38607  16.532   2.155  13.034
38127W        W38608  17.002   2.529  11.166
38128W        W38609  16.674   0.550  12.494
38129W        W38610  14.647   3.417  13.793
38130W        W38611  15.064   2.643  13.325
38131W        W38612  14.631   3.489  11.557
38132W        W38613  16.530   0.759  13.363
38133W        W38614  15.893   2.782  11.212
38134W        W38615  17.798   3.164  11.398
38135W        W38616  16.773   1.817  11.412
38136W        W38617  15.616   1.008  11.929
38137W        W38618  16.448   0.918  10.981
38138W        W38619  17.032   2.483  14.159
38139W        W38620  17.385   0.389  11.776
38140W        W38621  14.715   0.237  11.224
38141W        W38622  16.001   2.556  13.514
38142W        W38623  15.800   2.472  12.606
38143W        W38624  15.542   2.424  11.004
38144W        W38625  14.783   2.665  11.772
38145W        W38626  15.287   1.735  14.214
38146W        W38627  15.991   0.295  14.400
38147W        W38628  16.700   0.437  13.756
38148W        W38629  15.895   0.205  12.037
38149W        W38630  16.954   0.282  11.542
38150W        W38631  14.899   0.214  13.119
38151W        W38632  14.947   1.177  12.489
38152W        W38633  17.636   0.285  12.895
38153W        W38634  15.058   0.783  11.709
38154W        W38635  17.629   0.471  13.325
38155W        W38636  15.317   0.432  12.829
38156W        W38637  16.431   1.004  13.769
38157W        W38638  15.365   2.083  13.808
38158W        W38639  16.723   1.481  12.987
38159W        W38640  16.590   3.560  11.283
38160W        W38641  15.471   2.478  14.106
38161W        W38642  14.992   1.645  13.737
38162W        W38643  15.983   1.750  13.531
38163W        W38644  17.000   2.251  11.569
38164W        W38645  17.474   3.551  11.264
38165W        W38646  16.651   1.541  14.406
38166W        W38647  14.981   2.508  14.446
38167W        W38648  16.068   0.117  11.223
38168W        W38649  17.607   2.716  11.166
38169W        W38650  15.376   0.809  14.052
38170W        W38651  15.810   2.803  13.914
38171W        W38652  17.147   3.453  11.680
38172W        W38653  17.386   2.072  13.047
38173W        W38654  15.636   0.488  13.714
38174W        W38655  16.105   1.557  14.471
38175W        W38656  15.608   2.736  11.665
38176W        W38657  17.363   2.234  11.929
38177W        W38658  15.131   0.860  13.653
38178W        W38659  16.460   2.922  12.117
38179W        W38660  16.432   0.115  14.017
38180W        W38661  17.212   2.820  13.096
38181W        W38662  17.515   3.164  12.804
38182W        W38663  16.734   2.966  11.232
38183W        W38664  14.744   2.858  14.074
38184W        W38665  15.487   0.850  13.312
38185W        W38666  15.457   0.198  12.422
38186W        W38667  17.078   1.040  13.114
38187W        W38668  15.876   2.211  11.314
38188W        W38669  15.201   2.911  14.236
38189W        W38670  17.588   3.593  12.033
38190W        W38671  15.687   0.613  12.478
38191W        W38672  15.456   2.106  12.568
38192W        W38673  15.769   3.517  13.318
38193W        W38674  16.995   1.801  13.283
38194W        W38675  15.954   0.100  13.917
38195W        W38676  17.660   2.902  12.375
38196W        W38677  17.689   1.458  12.280
38197W        W38678  15.806   1.131  12.496
38198W        W38679  16.051   1.393  13.820
38199W        W38680  17.162   2.546  13.683
38200W        W38681  15.812   1.000  13.795
38201W        W38682  15.108   3.425  14.045
38202W        W38683  15.220   2.786  11.175
38203W        W38684  17.737   2.544  11.985
38204W        W38685  15.341   1.336  13.871
38205W        W38686  15.859   2.323  11.823
38206W        W38687  16.958   1.705  13.904
38207W        W38688  16.849   1.333  13.448
38208W        W38689  17.619   3.593  13.306
38209W        W38690  17.410   0.227  14.300
38210W        W38691  15.074   0.377  13.887
38211W        W38692  15.413   1.400  12.940
38212W        W38693  15.782   1.214  11.062
38213W        W38694  14.585   2.973  13.607
38214W        W38695  16.170   1.682  13.050
38215W        W38696  15.993   0.707  11.155
38216W        W38697  15.128   1.523  11.936
38217W        W38698  14.899   3.375  13.373
38218W        W38699  17.694   1.601  11.481
38219W        W38700  17.225   2.726  12.130
38220W        W38701  14.823   1.650  14.307
38221W        W38702  17.309   2.589  11.614
38222W        W38703  16.211   1.647  11.699
38223W        W38704  17.398   0.451  11.222
38224W        W38705  17.463   1.058  13.408
38225W        W38706  15.172   1.651  12.615
38226W        W38707  15.466   2.590  12.264
38227W        W38708  17.229   1.210  12.229
38228W        W38709  16.252   0.589  12.925
38229W        W38710  14.671   3.317  12.373
38230W        W38711  15.180   2.504  11.909
38231W        W38712  15.095   0.121  14.462
38232W        W38713  16.214   2.974  14.564
38233W        W38714  17.323   2.119  11.234
38234W        W38715  16.618   3.640  13.446
38235W        W38716  17.475   2.362  14.483
38236W        W38717  16.290   0.072  11.763
38237W        W38718  17.003   0.941  12.622
38238W        W38719  14.689   2.528  12.954
38239W        W38720  15.942   0.490  11.595
38240W        W38721  15.746   1.974  14.444
38241W        W38722  16.740   0.955  12.158
38242W        W38723  16.945   2.365  13.280
38243W        W38724  15.099   2.970  13.715
38244W        W38725  15.690   2.953  14.438
38245W        W38726  15.541   0.750  11.452
38246W        W38727  17.058   0.892  11.777
38247W        W38728  17.016   3.000  14.014
38248W        W38729  15.701   1.592  12.613
38249W        W38730  15.356   3.290  13.478
38250W        W38731  14.964   2.079  14.075
38251W        W38732  16.959   2.341  12.763
38252W        W38733  15.395   1.990  12.005
38253W        W38734  15.766   2.997  13.400
38254W        W38735  16.144   0.416  12.441
38255W        W38736  14.755   2.400  11.371
38256W        W38737  16.274   1.351  11.241
38257W        W38738  14.920   1.900  12.260
38258W        W38739  16.210   0.542  13.724
38259W        W38740  16.629   3.254  14.402
38260W        W38741  17.595   3.146  14.535
38261W        W38742  15.334   3.602  13.013
38262W        W38743  16.723   1.491  12.400
38263W        W38744  16.490   0.103  12.290
38264W        W38745  15.549   3.087  12.127
38265W        W38746  16.048   0.828  13.352
38266W        W38747  15.748   0.197  12.821
38267W        W38748  14.811   3.019  11.369
38268W        W38749  16.627   2.383  12.087
38269W        W38750  15.502   3.178  13.966
38270W        W38751  14.979   2.001  11.662
38271W        W38752  14.864   0.544  12.661
38272W        W38753  16.412   2.509  12.718
38273W        W38754  14.664   0.363  11.738
38274W        W38755  17.328   1.569  13.665
38275W        W38756  17.205   0.955  11.237
38276W        W38757  16.383   3.111  12.716
38277W        W38758  15.795   3.215  11.627
38278W        W38759  17.077   0.118  11.057
38279W        W38760  14.877   3.378  12.798
38280W        W38761  17.074   1.136  14.433
38281W        W38762  15.057   0.666  14.432
38282W        W38763  14.788   1.266  11.765
38283W        W38764  15.479   1.255  11.490
38284W        W38765  17.242   1.582  14.307
38285W        W38766  15.585   1.863  13.016
38286W        W38767  17.059   0.149  12.136
38287W        W38768  16.190   3.580  12.639
38288W        W38769  17.404   3.042  13.576
38289W        W38770  16.988   3.191  12.687
38290W        W38771  17.007   2.171  12.281
38291W        W38772  16.469   0.396  11.352
38292W        W38773  18.150   0.024  12.074
38293W        W38774  15.838   1.659  11.237
38294W        W38775  16.696   2.166  11.104
38295W        W38776  17.632   2.366  13.852
38296W        W38777  17.286   3.067  11.319
38297W        W38778  15.901   0.742  14.225
38298W        W38779  15.721   1.326  13.466
38299W        W38780  16.913   0.771  14.120
38300W        W38781  14.757   1.242  13.897
38301W        W38782  16.517   1.719  13.623
38302W        W38783  14.874   2.477  12.280
38303W        W38784  15.021   1.774  13.170
38304W        W38785  17.338   2.060  13.520
38305W        W38786  17.110   3.440  14.331
38306W        W38787  17.006   1.179  13.884
38307W        W38788  17.283   3.233  12.289
38308W        W38789  16.285   2.953  13.612
38309W        W38790  15.770   3.308  12.881
38310W        W38791  17.575   2.479  13.300
38311W        W38792  16.625   2.551  14.437
38312W        W38793  15.230   2.504  12.776
38313W        W38794  17.576   2.263  12.421
38314W        W38795  17.217   3.329  13.172
38315W        W38796  15.195   3.058  13.042
38316W        W38797  16.216   1.110  14.252
38317W        W38798  16.667   3.276  11.763
38318W        W38799  15.975   2.531  14.401
38319W        W38800  16.101   2.769  11.778
38320W        W38801  15.037   2.488  17.459
38321W        W38802  17.742   2.218  15.229
38322W        W38803  15.790   3.294  14.782
38323W        W38804  15.873   1.446  15.765
38324W        W38805  15.388   1.294  15.929
38325W        W38806  16.379   2.109  15.363
38326W        W38807  16.054   3.201  17.718
38327W        W38808  14.703   0.762  17.681
38328W        W38809  15.465   0.042  17.483
38329W        W38810  17.159   0.430  16.370
38330W        W38811  16.808   1.301  14.940
38331W        W38812  14.744   0.527  17.156
38332W        W38813  16.365   2.536  14.909
38333W        W38814  14.797   1.319  16.602
38334W        W38815  16.221   1.445  16.224
38335W        W38816  16.767   2.784  16.593
38336W        W38817  15.267   2.218  16.825
38337W        W38818  14.626   1.746  16.396
38338W        W38819  15.662   1.718  17.588
38339W        W38820  15.549   2.945  16.287
38340W        W38821  16.670   2.634  17.421
38341W        W38822  15.890   1.274  16.646
38342W        W38823  16.182   2.058  16.289
38343W        W38824  16.239   1.867  17.625
38344W        W38825  17.480   2.793  17.746
38345W        W38826  15.061   0.375  15.744
38346W        W38827  15.588   2.633  16.743
38347W        W38828  17.464   0.816  16.600
38348W        W38829  16.181   3.277  16.754
38349W        W38830  15.084   3.529  14.946
38350W        W38831  15.477   3.575  15.622
38351W        W38832  15.274   0.329  17.048
38352W        W38833  17.302   1.769  15.782
38353W        W38834  17.268   1.457  14.809
38354W        W38835  16.476   2.601  16.949
38355W        W38836  16.282   0.931  16.148
38356W        W38837  16.882   3.018  17.142
38357W        W38838  16.655   0.467  15.580
38358W        W38839  15.312   3.161  15.263
38359W        W38840  14.683   0.660  15.862
38360W        W38841  17.469   1.267  16.336
38361W        W38842  14.927   2.884  16.251
38362W        W38843  16.268   3.234  15.121
38363W        W38844  14.683   3.018  16.749
38364W        W38845  15.474   2.590  17.229
38365W        W38846  15.847   1.950  15.848
38366W        W38847  15.869   0.355  16.941
38367W        W38848  15.317   1.989  14.706
38368W        W38849  14.972   1.022  14.885
38369W        W38850  15.034   2.978  15.679
38370W        W38851  16.165   2.461  15.927
38371W        W38852  17.497   3.320  17.641
38372W        W38853  16.423   0.962  15.325
38373W        W38854  16.823   2.161  17.313
38374W        W38855  14.589   1.712  15.519
38375W        W38856  15.700   2.127  17.092
38376W        W38857  16.904   1.391  15.470
38377W        W38858  16.781   1.881  15.574
38378W        W38859  15.124   1.301  17.048
38379W        W38860  14.999   0.094  16.129
38380W        W38861  16.767   0.441  16.690
38381W        W38862  16.770   0.775  15.031
38382W        W38863  17.939   2.550  17.946
38383W        W38864  17.369   0.717  17.542
38384W        W38865  17.169   0.655  15.812
38385W        W38866  15.302   3.365  16.202
38386W        W38867  15.960   1.082  15.188
38387W        W38868  17.581   0.850  15.533
38388W        W38869  15.617   0.085  15.184
38389W        W38870  14.995   2.071  16.366
38390W        W38871  16.912   0.658  14.596
38391W        W38872  16.530   1.396  17.620
38392W        W38873  16.623   2.735  15.323
38393W        W38874  16.697   0.006  16.372
38394W        W38875  15.309   0.909  16.435
38395W        W38876  14.863   2.109  17.209
38396W        W38877  16.553   3.246  17.554
38397W        W38878  16.331   1.788  15.820
38398W        W38879  16.332   2.134  17.155
38399W        W38880  16.549   1.020  16.600
38400W        W38881  17.401   1.318  15.438
38401W        W38882  17.688   1.051  15.080
38402W        W38883  17.497   3.091  15.469
38403W        W38884  17.331   2.694  16.265
38404W        W38885  17.227   1.773  15.243
38405W        W38886  16.660   1.983  16.229
38406W        W38887  17.541   1.771  16.296
38407W        W38888  14.916   0.786  16.720
38408W        W38889  17.694   1.838  17.547
38409W        W38890  15.975   2.900  16.095
38410W        W38891  16.982   3.433  17.419
38411W        W38892  16.976   0.763  17.183
38412W        W38893  16.183   3.471  17.244
38413W        W38894  17.671   1.744  17.011
38414W        W38895  17.514   0.860  16.067
38415W        W38896  16.810   2.710  16.062
38416W        W38897  16.066   3.301  15.675
38417W        W38898  15.181   0.481  14.933
38418W        W38899  16.285   0.135  16.743
38419W        W38900  15.313   3.255  14.591
38420W        W38901  15.687   1.721  15.342
38421W        W38902  16.341   2.350  17.655
38422W        W38903  16.171   0.708  15.645
38423W        W38904  17.527   0.305  16.073
38424W        W38905  17.247   3.587  16.401
38425W        W38906  16.659   3.235  16.741
38426W        W38907  16.055   2.272  16.702
38427W        W38908  16.041   2.795  16.557
38428W        W38909  15.524   0.726  14.622
38429W        W38910  16.325   1.335  17.016
38430W        W38911  17.173   0.201  16.886
38431W        W38912  14.593   2.044  16.771
38432W        W38913  16.297   1.862  14.929
38433W        W38914  15.565   0.177  14.699
38434W        W38915  16.303   1.258  15.750
38435W        W38916  17.273   0.234  17.449
38436W        W38917  15.861   2.246  17.558
38437W        W38918  17.282   2.058  17.668
38438W        W38919  15.788   0.814  16.566
38439W        W38920  15.214   0.770  15.964
38440W        W38921  15.000   3.482  15.640
38441W        W38922  16.332   2.812  17.765
38442W        W38923  15.367   2.297  15.124
38443W        W38924  17.047   1.682  16.345
38444W        W38925  17.327   1.481  16.744
38445W        W38926  16.532   2.155  16.678
38446W        W38927  17.002   2.529  14.810
38447W        W38928  16.674   0.550  16.138
38448W        W38929  14.647   3.417  17.437
38449W        W38930  15.064   2.643  16.969
38450W        W38931  14.631   3.489  15.201
38451W        W38932  16.530   0.759  17.007
38452W        W38933  15.893   2.782  14.856
38453W        W38934  17.798   3.164  15.042
38454W        W38935  16.773   1.817  15.056
38455W        W38936  15.616   1.008  15.573
38456W        W38937  16.448   0.918  14.625
38457W        W38938  17.385   0.389  15.420
38458W        W38939  14.715   0.237  14.868
38459W        W38940  16.001   2.556  17.158
38460W        W38941  15.800   2.472  16.250
38461W        W38942  15.542   2.424  14.648
38462W        W38943  14.783   2.665  15.416
38463W        W38944  16.700   0.437  17.400
38464W        W38945  15.895   0.205  15.681
38465W        W38946  16.954   0.282  15.186
38466W        W38947  14.899   0.214  16.763
38467W        W38948  14.947   1.177  16.133
38468W        W38949  17.636   0.285  16.539
38469W        W38950  15.058   0.783  15.353
38470W        W38951  17.629   0.471  16.969
38471W        W38952  15.317   0.432  16.473
38472W        W38953  16.431   1.004  17.413
38473W        W38954  14.579   0.694  14.891
38474W        W38955  15.365   2.083  17.452
38475W        W38956  16.723   1.481  16.631
38476W        W38957  14.736   2.067  14.624
38477W        W38958  14.992   1.645  17.381
38478W        W38959  15.983   1.750  17.175
38479W        W38960  17.000   2.251  15.213
38480W        W38961  17.474   3.551  14.908
38481W        W38962  16.068   0.117  14.867
38482W        W38963  17.607   2.716  14.810
38483W        W38964  15.810   2.803  17.558
38484W        W38965  17.147   3.453  15.324
38485W        W38966  17.386   2.072  16.691
38486W        W38967  15.636   0.488  17.358
38487W        W38968  15.608   2.736  15.309
38488W        W38969  17.363   2.234  15.573
38489W        W38970  15.131   0.860  17.297
38490W        W38971  16.460   2.922  15.761
38491W        W38972  16.432   0.115  17.661
38492W        W38973  17.212   2.820  16.740
38493W        W38974  17.515   3.164  16.448
38494W        W38975  16.734   2.966  14.876
38495W        W38976  14.744   2.858  17.718
38496W        W38977  15.487   0.850  16.956
38497W        W38978  15.457   0.198  16.066
38498W        W38979  17.078   1.040  16.758
38499W        W38980  15.876   2.211  14.958
38500W        W38981  15.687   0.613  16.122
38501W        W38982  15.456   2.106  16.212
38502W        W38983  15.769   3.517  16.962
38503W        W38984  16.995   1.801  16.927
38504W        W38985  14.844   1.599  14.842
38505W        W38986  15.954   0.100  17.561
38506W        W38987  17.660   2.902  16.019
38507W        W38988  17.689   1.458  15.924
38508W        W38989  15.806   1.131  16.140
38509W        W38990  16.051   1.393  17.464
38510W        W38991  17.162   2.546  17.327
38511W        W38992  15.812   1.000  17.439
38512W        W38993  15.791   3.466  16.055
38513W        W38994  15.220   2.786  14.819
38514W        W38995  17.737   2.544  15.629
38515W        W38996  15.341   1.336  17.515
38516W        W38997  15.859   2.323  15.467
38517W        W38998  16.958   1.705  17.548
38518W        W38999  16.849   1.333  17.092
38519W        W39000  15.409   1.705  17.121
38520W        W39001  17.619   3.593  16.950
38521W        W39002  15.074   0.377  17.531
38522W        W39003  15.413   1.400  16.584
38523W        W39004  15.782   1.214  14.706
38524W        W39005  14.585   2.973  17.251
38525W        W39006  16.170   1.682  16.694
38526W        W39007  15.993   0.707  14.799
38527W        W39008  15.128   1.523  15.580
38528W        W39009  14.899   3.375  17.017
38529W        W39010  17.694   1.601  15.125
38530W        W39011  17.225   2.726  15.774
38531W        W39012  17.309   2.589  15.258
38532W        W39013  16.211   1.647  15.343
38533W        W39014  17.398   0.451  14.866
38534W        W39015  17.463   1.058  17.052
38535W        W39016  15.172   1.651  16.259
38536W        W39017  15.466   2.590  15.908
38537W        W39018  17.229   1.210  15.873
38538W        W39019  16.252   0.589  16.569
38539W        W39020  14.671   3.317  16.017
38540W        W39021  17.323   2.119  14.878
38541W        W39022  16.618   3.640  17.090
38542W        W39023  16.290   0.072  15.407
38543W        W39024  17.003   0.941  16.266
38544W        W39025  14.689   2.528  16.598
38545W        W39026  15.942   0.490  15.239
38546W        W39027  16.740   0.955  15.802
38547W        W39028  16.945   2.365  16.924
38548W        W39029  15.099   2.970  17.359
38549W        W39030  15.541   0.750  15.096
38550W        W39031  17.058   0.892  15.421
38551W        W39032  17.016   3.000  17.658
38552W        W39033  15.701   1.592  16.257
38553W        W39034  15.356   3.290  17.122
38554W        W39035  16.959   2.341  16.407
38555W        W39036  15.395   1.990  15.649
38556W        W39037  15.766   2.997  17.044
38557W        W39038  16.144   0.416  16.085
38558W        W39039  14.755   2.400  15.015
38559W        W39040  16.274   1.351  14.885
38560W        W39041  14.920   1.900  15.904
38561W        W39042  16.210   0.542  17.368
38562W        W39043  15.334   3.602  16.657
38563W        W39044  16.723   1.491  16.044
38564W        W39045  16.490   0.103  15.934
38565W        W39046  15.549   3.087  15.771
38566W        W39047  16.048   0.828  16.996
38567W        W39048  15.748   0.197  16.465
38568W        W39049  14.811   3.019  15.013
38569W        W39050  16.627   2.383  15.731
38570W        W39051  15.502   3.178  17.610
38571W        W39052  14.979   2.001  15.306
38572W        W39053  14.864   0.544  16.305
38573W        W39054  16.412   2.509  16.362
38574W        W39055  14.664   0.363  15.382
38575W        W39056  17.328   1.569  17.309
38576W        W39057  17.205   0.955  14.881
38577W        W39058  16.383   3.111  16.360
38578W        W39059  15.795   3.215  15.271
38579W        W39060  17.077   0.118  14.701
38580W        W39061  14.877   3.378  16.442
38581W        W39062  14.788   1.266  15.409
38582W        W39063  15.479   1.255  15.134
38583W        W39064  15.585   1.863  16.660
38584W        W39065  17.059   0.149  15.780
38585W        W39066  16.190   3.580  16.283
38586W        W39067  17.404   3.042  17.220
38587W        W39068  16.988   3.191  16.331
38588W        W39069  17.007   2.171  15.925
38589W        W39070  16.469   0.396  14.996
38590W        W39071  18.150   0.024  15.718
38591W        W39072  15.838   1.659  14.881
38592W        W39073  16.696   2.166  14.748
38593W        W39074  17.632   2.366  17.496
38594W        W39075  17.286   3.067  14.963
38595W        W39076  15.721   1.326  17.110
38596W        W39077  14.757   1.242  17.541
38597W        W39078  16.517   1.719  17.267
38598W        W39079  14.874   2.477  15.924
38599W        W39080  15.021   1.774  16.814
38600W        W39081  17.338   2.060  17.164
38601W        W39082  17.110   3.440  17.975
38602W        W39083  17.006   1.179  17.528
38603W        W39084  17.283   3.233  15.933
38604W        W39085  16.285   2.953  17.256
38605W        W39086  17.575   2.479  16.944
38606W        W39087  17.576   2.263  16.065
38607W        W39088  17.217   3.329  16.816
38608W        W39089  15.195   3.058  16.686
38609W        W39090  16.667   3.276  15.407
38610W        W39091  16.101   2.769  15.422
38611W        W39092  15.322   1.509  14.681
38612W        W39093  14.661   7.239   3.359
38613W        W39094  15.037   6.132   2.882
38614W        W39095  17.742   5.862   0.652
38615W        W39096  15.790   6.938   0.205
38616W        W39097  15.873   5.090   1.188
38617W        W39098  15.388   4.938   1.352
38618W        W39099  16.379   5.753   0.786
38619W        W39100  16.054   6.845   3.141
38620W        W39101  14.703   4.406   3.104
38621W        W39102  15.465   3.686   2.906
38622W        W39103  17.159   4.074   1.793
38623W        W39104  16.808   4.945   0.363
38624W        W39105  17.378   4.379   3.454
38625W        W39106  14.744   4.171   2.579
38626W        W39107  14.843   6.790   3.600
38627W        W39108  16.365   6.180   0.332
38628W        W39109  14.797   4.963   2.025
38629W        W39110  15.690   4.854   3.262
38630W        W39111  16.221   5.089   1.647
38631W        W39112  16.767   6.428   2.016
38632W        W39113  15.267   5.862   2.248
38633W        W39114  14.626   5.390   1.819
38634W        W39115  15.662   5.362   3.011
38635W        W39116  15.549   6.589   1.710
38636W        W39117  16.670   6.278   2.844
38637W        W39118  15.890   4.918   2.069
38638W        W39119  16.182   5.702   1.712
38639W        W39120  17.179   6.475   3.560
38640W        W39121  16.258   5.795   3.570
38641W        W39122  16.239   5.511   3.048
38642W        W39123  14.648   4.902   3.570
38643W        W39124  17.480   6.437   3.169
38644W        W39125  15.061   4.019   1.167
38645W        W39126  15.588   6.277   2.166
38646W        W39127  17.464   4.460   2.023
38647W        W39128  16.181   6.921   2.177
38648W        W39129  15.084   7.173   0.369
38649W        W39130  15.477   7.219   1.045
38650W        W39131  15.274   3.973   2.471
38651W        W39132  17.302   5.413   1.205
38652W        W39133  17.268   5.101   0.232
38653W        W39134  16.476   6.245   2.372
38654W        W39135  16.282   4.575   1.571
38655W        W39136  16.882   6.662   2.565
38656W        W39137  16.655   4.111   1.003
38657W        W39138  15.312   6.805   0.686
38658W        W39139  14.683   4.304   1.285
38659W        W39140  17.469   4.911   1.759
38660W        W39141  14.927   6.528   1.674
38661W        W39142  16.268   6.878   0.544
38662W        W39143  17.660   4.904   0.008
38663W        W39144  14.683   6.662   2.172
38664W        W39145  15.474   6.234   2.652
38665W        W39146  15.847   5.594   1.271
38666W        W39147  15.869   3.999   2.364
38667W        W39148  15.317   5.633   0.129
38668W        W39149  14.972   4.666   0.308
38669W        W39150  15.034   6.622   1.102
38670W        W39151  16.165   6.105   1.350
38671W        W39152  17.497   6.964   3.064
38672W        W39153  16.423   4.606   0.748
38673W        W39154  17.483   4.857   3.118
38674W        W39155  16.823   5.805   2.736
38675W        W39156  14.589   5.356   0.942
38676W        W39157  15.700   5.771   2.515
38677W        W39158  16.904   5.035   0.893
38678W        W39159  16.781   5.525   0.997
38679W        W39160  15.124   4.945   2.471
38680W        W39161  15.109   4.821   3.393
38681W        W39162  14.999   3.738   1.552
38682W        W39163  16.767   4.085   2.113
38683W        W39164  16.415   4.270   3.276
38684W        W39165  16.770   4.419   0.454
38685W        W39166  16.920   3.893   3.247
38686W        W39167  17.939   6.194   3.369
38687W        W39168  17.369   4.361   2.965
38688W        W39169  17.169   4.299   1.235
38689W        W39170  17.562   5.433   3.639
38690W        W39171  15.302   7.009   1.625
38691W        W39172  15.960   4.726   0.611
38692W        W39173  15.529   4.010   3.275
38693W        W39174  17.581   4.494   0.956
38694W        W39175  15.691   7.193   3.372
38695W        W39176  15.617   3.729   0.607
38696W        W39177  14.995   5.715   1.789
38697W        W39178  16.912   4.302   0.019
38698W        W39179  16.530   5.040   3.043
38699W        W39180  16.623   6.379   0.746
38700W        W39181  17.023   5.673   3.486
38701W        W39182  16.697   3.650   1.795
38702W        W39183  15.309   4.553   1.858
38703W        W39184  14.863   5.753   2.632
38704W        W39185  16.722   6.946   1.338
38705W        W39186  16.553   6.890   2.977
38706W        W39187  16.331   5.432   1.243
38707W        W39188  16.332   5.778   2.578
38708W        W39189  16.549   4.664   2.023
38709W        W39190  17.401   4.962   0.861
38710W        W39191  17.688   4.695   0.503
38711W        W39192  17.497   6.735   0.892
38712W        W39193  17.331   6.338   1.688
38713W        W39194  17.227   5.417   0.666
38714W        W39195  16.660   5.627   1.652
38715W        W39196  17.541   5.415   1.719
38716W        W39197  14.916   4.430   2.143
38717W        W39198  17.694   5.482   2.970
38718W        W39199  15.975   6.544   1.518
38719W        W39200  16.982   7.077   2.842
38720W        W39201  16.976   4.407   2.606
38721W        W39202  16.183   7.115   2.667
38722W        W39203  17.671   5.388   2.434
38723W        W39204  14.654   4.709   2.472
38724W        W39205  17.514   4.504   1.490
38725W        W39206  16.810   6.354   1.485
38726W        W39207  16.066   6.945   1.098
38727W        W39208  15.181   4.125   0.356
38728W        W39209  16.285   3.779   2.166
38729W        W39210  15.313   6.899   0.014
38730W        W39211  15.687   5.365   0.765
38731W        W39212  16.341   5.994   3.078
38732W        W39213  16.171   4.352   1.068
38733W        W39214  17.527   3.949   1.496
38734W        W39215  17.247   7.231   1.824
38735W        W39216  16.659   6.879   2.164
38736W        W39217  16.055   5.916   2.125
38737W        W39218  15.519   4.142   1.020
38738W        W39219  16.041   6.439   1.980
38739W        W39220  15.524   4.370   0.045
38740W        W39221  16.325   4.979   2.439
38741W        W39222  17.173   3.845   2.309
38742W        W39223  14.593   5.688   2.194
38743W        W39224  16.297   5.506   0.352
38744W        W39225  15.565   3.821   0.122
38745W        W39226  16.303   4.902   1.173
38746W        W39227  17.273   3.878   2.872
38747W        W39228  15.861   5.890   2.981
38748W        W39229  16.665   5.672   3.198
38749W        W39230  17.282   5.702   3.091
38750W        W39231  16.566   3.842   3.596
38751W        W39232  15.788   4.458   1.989
38752W        W39233  15.214   4.414   1.387
38753W        W39234  15.000   7.126   1.063
38754W        W39235  16.332   6.456   3.188
38755W        W39236  15.367   5.941   0.547
38756W        W39237  17.047   5.326   1.768
38757W        W39238  17.327   5.125   2.167
38758W        W39239  16.532   5.799   2.101
38759W        W39240  17.002   6.173   0.233
38760W        W39241  16.674   4.194   1.561
38761W        W39242  14.647   7.061   2.860
38762W        W39243  15.064   6.287   2.392
38763W        W39244  14.631   7.133   0.624
38764W        W39245  16.530   4.403   2.430
38765W        W39246  15.893   6.426   0.279
38766W        W39247  17.798   6.808   0.465
38767W        W39248  16.773   5.461   0.479
38768W        W39249  15.616   4.652   0.996
38769W        W39250  16.448   4.562   0.048
38770W        W39251  17.032   6.127   3.226
38771W        W39252  17.385   4.033   0.843
38772W        W39253  14.715   3.881   0.291
38773W        W39254  16.001   6.200   2.581
38774W        W39255  15.800   6.116   1.673
38775W        W39256  15.542   6.068   0.071
38776W        W39257  14.783   6.309   0.839
38777W        W39258  15.287   5.379   3.281
38778W        W39259  15.991   3.939   3.467
38779W        W39260  16.700   4.081   2.823
38780W        W39261  15.895   3.849   1.104
38781W        W39262  16.954   3.926   0.609
38782W        W39263  14.899   3.858   2.186
38783W        W39264  14.947   4.821   1.556
38784W        W39265  17.636   3.929   1.962
38785W        W39266  15.058   4.427   0.776
38786W        W39267  17.629   4.115   2.392
38787W        W39268  15.317   4.076   1.896
38788W        W39269  16.431   4.648   2.836
38789W        W39270  14.579   4.338   0.314
38790W        W39271  15.365   5.727   2.875
38791W        W39272  16.723   5.125   2.054
38792W        W39273  16.590   7.204   0.350
38793W        W39274  14.736   5.711   0.047
38794W        W39275  15.471   6.122   3.173
38795W        W39276  14.992   5.289   2.804
38796W        W39277  15.983   5.394   2.598
38797W        W39278  17.751   3.753   2.860
38798W        W39279  17.000   5.895   0.636
38799W        W39280  17.474   7.195   0.331
38800W        W39281  16.651   5.185   3.473
38801W        W39282  14.981   6.152   3.513
38802W        W39283  16.213   7.132   3.563
38803W        W39284  16.068   3.761   0.290
38804W        W39285  17.607   6.360   0.233
38805W        W39286  15.376   4.453   3.119
38806W        W39287  15.810   6.447   2.981
38807W        W39288  17.147   7.097   0.747
38808W        W39289  17.386   5.716   2.114
38809W        W39290  15.636   4.132   2.781
38810W        W39291  16.105   5.201   3.538
38811W        W39292  15.608   6.380   0.732
38812W        W39293  17.363   5.878   0.996
38813W        W39294  15.131   4.504   2.720
38814W        W39295  16.460   6.566   1.184
38815W        W39296  16.432   3.759   3.084
38816W        W39297  17.212   6.464   2.163
38817W        W39298  17.515   6.808   1.871
38818W        W39299  16.734   6.610   0.299
38819W        W39300  14.744   6.502   3.141
38820W        W39301  15.487   4.494   2.379
38821W        W39302  15.457   3.842   1.489
38822W        W39303  17.078   4.684   2.181
38823W        W39304  15.876   5.855   0.381
38824W        W39305  15.201   6.555   3.303
38825W        W39306  17.588   7.237   1.100
38826W        W39307  15.687   4.257   1.545
38827W        W39308  15.456   5.750   1.635
38828W        W39309  15.769   7.161   2.385
38829W        W39310  16.995   5.445   2.350
38830W        W39311  14.844   5.243   0.265
38831W        W39312  15.954   3.744   2.984
38832W        W39313  17.660   6.546   1.442
38833W        W39314  17.689   5.102   1.347
38834W        W39315  15.806   4.775   1.563
38835W        W39316  16.051   5.037   2.887
38836W        W39317  17.162   6.190   2.750
38837W        W39318  15.812   4.644   2.862
38838W        W39319  15.791   7.110   1.478
38839W        W39320  15.108   7.069   3.112
38840W        W39321  15.220   6.430   0.242
38841W        W39322  17.737   6.188   1.052
38842W        W39323  15.341   4.980   2.938
38843W        W39324  15.859   5.967   0.890
38844W        W39325  16.958   5.349   2.971
38845W        W39326  16.849   4.977   2.515
38846W        W39327  15.409   5.349   2.544
38847W        W39328  17.619   7.237   2.373
38848W        W39329  17.410   3.871   3.367
38849W        W39330  15.074   4.021   2.954
38850W        W39331  15.413   5.044   2.007
38851W        W39332  15.782   4.858   0.129
38852W        W39333  14.585   6.617   2.674
38853W        W39334  16.170   5.326   2.117
38854W        W39335  15.993   4.351   0.222
38855W        W39336  15.128   5.167   1.003
38856W        W39337  14.899   7.019   2.440
38857W        W39338  17.694   5.245   0.548
38858W        W39339  17.225   6.370   1.197
38859W        W39340  14.823   5.294   3.374
38860W        W39341  17.309   6.233   0.681
38861W        W39342  16.211   5.291   0.766
38862W        W39343  17.398   4.095   0.289
38863W        W39344  17.463   4.702   2.475
38864W        W39345  15.172   5.295   1.682
38865W        W39346  15.466   6.234   1.331
38866W        W39347  17.229   4.854   1.296
38867W        W39348  16.252   4.233   1.992
38868W        W39349  14.671   6.961   1.440
38869W        W39350  15.180   6.148   0.976
38870W        W39351  15.095   3.765   3.529
38871W        W39352  16.214   6.618   3.631
38872W        W39353  16.618   7.284   2.513
38873W        W39354  17.475   6.006   3.550
38874W        W39355  16.290   3.716   0.830
38875W        W39356  17.003   4.585   1.689
38876W        W39357  14.689   6.172   2.021
38877W        W39358  15.942   4.134   0.662
38878W        W39359  15.746   5.618   3.511
38879W        W39360  16.740   4.599   1.225
38880W        W39361  16.945   6.009   2.347
38881W        W39362  15.099   6.614   2.782
38882W        W39363  15.690   6.597   3.505
38883W        W39364  15.541   4.394   0.519
38884W        W39365  17.058   4.536   0.844
38885W        W39366  17.016   6.644   3.081
38886W        W39367  15.701   5.236   1.680
38887W        W39368  15.356   6.934   2.545
38888W        W39369  14.964   5.723   3.142
38889W        W39370  16.959   5.985   1.830
38890W        W39371  15.395   5.634   1.072
38891W        W39372  15.766   6.641   2.467
38892W        W39373  16.144   4.060   1.508
38893W        W39374  14.755   6.044   0.438
38894W        W39375  16.274   4.995   0.308
38895W        W39376  14.920   5.544   1.327
38896W        W39377  16.210   4.186   2.791
38897W        W39378  16.629   6.898   3.469
38898W        W39379  17.595   6.790   3.602
38899W        W39380  15.334   7.246   2.080
38900W        W39381  16.723   5.135   1.467
38901W        W39382  16.490   3.747   1.357
38902W        W39383  15.549   6.731   1.194
38903W        W39384  16.048   4.472   2.419
38904W        W39385  15.748   3.841   1.888
38905W        W39386  14.811   6.663   0.436
38906W        W39387  16.627   6.027   1.154
38907W        W39388  15.502   6.822   3.033
38908W        W39389  14.979   5.645   0.729
38909W        W39390  14.864   4.188   1.728
38910W        W39391  16.412   6.153   1.785
38911W        W39392  14.664   4.007   0.805
38912W        W39393  17.328   5.213   2.732
38913W        W39394  17.205   4.599   0.304
38914W        W39395  16.383   6.755   1.783
38915W        W39396  15.795   6.859   0.694
38916W        W39397  14.877   7.022   1.865
38917W        W39398  17.074   4.780   3.500
38918W        W39399  15.057   4.310   3.499
38919W        W39400  14.788   4.910   0.832
38920W        W39401  15.479   4.899   0.557
38921W        W39402  17.242   5.226   3.374
38922W        W39403  15.585   5.507   2.083
38923W        W39404  17.059   3.793   1.203
38924W        W39405  16.190   7.224   1.706
38925W        W39406  17.404   6.686   2.643
38926W        W39407  16.988   6.835   1.754
38927W        W39408  17.007   5.815   1.348
38928W        W39409  16.469   4.040   0.419
38929W        W39410  15.838   5.303   0.304
38930W        W39411  16.696   5.810   0.171
38931W        W39412  17.632   6.010   2.919
38932W        W39413  17.286   6.711   0.386
38933W        W39414  15.901   4.386   3.292
38934W        W39415  15.721   4.970   2.533
38935W        W39416  16.913   4.415   3.187
38936W        W39417  14.757   4.886   2.964
38937W        W39418  16.517   5.363   2.690
38938W        W39419  14.874   6.121   1.347
38939W        W39420  15.021   5.418   2.237
38940W        W39421  17.338   5.704   2.587
38941W        W39422  17.110   7.084   3.398
38942W        W39423  17.006   4.823   2.951
38943W        W39424  17.283   6.877   1.356
38944W        W39425  16.285   6.597   2.679
38945W        W39426  15.770   6.952   1.948
38946W        W39427  16.625   6.195   3.504
38947W        W39428  15.230   6.148   1.843
38948W        W39429  17.576   5.907   1.488
38949W        W39430  17.217   6.973   2.239
38950W        W39431  16.216   4.754   3.319
38951W        W39432  16.667   6.920   0.830
38952W        W39433  15.975   6.175   3.468
38953W        W39434  16.101   6.413   0.845
38954W        W39435  15.322   5.153   0.104
38955W        W39436  14.661   7.239   7.003
38956W        W39437  15.037   6.132   6.526
38957W        W39438  17.742   5.862   4.296
38958W        W39439  15.790   6.938   3.849
38959W        W39440  15.873   5.090   4.832
38960W        W39441  15.388   4.938   4.996
38961W        W39442  16.379   5.753   4.430
38962W        W39443  16.054   6.845   6.785
38963W        W39444  14.703   4.406   6.748
38964W        W39445  15.465   3.686   6.550
38965W        W39446  17.159   4.074   5.437
38966W        W39447  16.808   4.945   4.007
38967W        W39448  17.378   4.379   7.098
38968W        W39449  14.744   4.171   6.223
38969W        W39450  14.843   6.790   7.244
38970W        W39451  16.365   6.180   3.976
38971W        W39452  14.797   4.963   5.669
38972W        W39453  15.690   4.854   6.906
38973W        W39454  16.221   5.089   5.291
38974W        W39455  16.767   6.428   5.660
38975W        W39456  15.267   5.862   5.892
38976W        W39457  14.626   5.390   5.463
38977W        W39458  15.662   5.362   6.655
38978W        W39459  16.670   6.278   6.488
38979W        W39460  15.890   4.918   5.713
38980W        W39461  16.182   5.702   5.356
38981W        W39462  17.179   6.475   7.204
38982W        W39463  16.258   5.795   7.214
38983W        W39464  16.239   5.511   6.692
38984W        W39465  17.480   6.437   6.813
38985W        W39466  15.061   4.019   4.811
38986W        W39467  17.464   4.460   5.667
38987W        W39468  16.181   6.921   5.821
38988W        W39469  15.084   7.173   4.013
38989W        W39470  15.477   7.219   4.689
38990W        W39471  15.274   3.973   6.115
38991W        W39472  17.302   5.413   4.849
38992W        W39473  17.268   5.101   3.876
38993W        W39474  16.476   6.245   6.016
38994W        W39475  16.282   4.575   5.215
38995W        W39476  16.882   6.662   6.209
38996W        W39477  16.655   4.111   4.647
38997W        W39478  15.312   6.805   4.330
38998W        W39479  14.683   4.304   4.929
38999W        W39480  17.469   4.911   5.403
39000W        W39481  14.927   6.528   5.318
39001W        W39482  16.268   6.878   4.188
39002W        W39483  14.683   6.662   5.816
39003W        W39484  15.474   6.234   6.296
39004W        W39485  15.847   5.594   4.915
39005W        W39486  15.869   3.999   6.008
39006W        W39487  15.317   5.633   3.773
39007W        W39488  14.972   4.666   3.952
39008W        W39489  15.034   6.622   4.746
39009W        W39490  16.165   6.105   4.994
39010W        W39491  17.497   6.964   6.708
39011W        W39492  16.423   4.606   4.392
39012W        W39493  17.483   4.857   6.762
39013W        W39494  16.823   5.805   6.380
39014W        W39495  14.589   5.356   4.586
39015W        W39496  15.700   5.771   6.159
39016W        W39497  16.904   5.035   4.537
39017W        W39498  16.781   5.525   4.641
39018W        W39499  15.124   4.945   6.115
39019W        W39500  14.999   3.738   5.196
39020W        W39501  16.415   4.270   6.920
39021W        W39502  16.770   4.419   4.098
39022W        W39503  16.920   3.893   6.891
39023W        W39504  17.939   6.194   7.013
39024W        W39505  17.369   4.361   6.609
39025W        W39506  17.169   4.299   4.879
39026W        W39507  17.562   5.433   7.283
39027W        W39508  15.302   7.009   5.269
39028W        W39509  15.960   4.726   4.255
39029W        W39510  15.529   4.010   6.919
39030W        W39511  17.581   4.494   4.600
39031W        W39512  15.691   7.193   7.016
39032W        W39513  15.617   3.729   4.251
39033W        W39514  14.995   5.715   5.433
39034W        W39515  16.912   4.302   3.663
39035W        W39516  16.530   5.040   6.687
39036W        W39517  16.623   6.379   4.390
39037W        W39518  17.023   5.673   7.130
39038W        W39519  16.697   3.650   5.439
39039W        W39520  14.863   5.753   6.276
39040W        W39521  16.722   6.946   4.982
39041W        W39522  16.553   6.890   6.621
39042W        W39523  16.331   5.432   4.887
39043W        W39524  16.332   5.778   6.222
39044W        W39525  16.549   4.664   5.667
39045W        W39526  17.401   4.962   4.505
39046W        W39527  17.688   4.695   4.147
39047W        W39528  17.497   6.735   4.536
39048W        W39529  17.331   6.338   5.332
39049W        W39530  17.227   5.417   4.310
39050W        W39531  16.660   5.627   5.296
39051W        W39532  17.541   5.415   5.363
39052W        W39533  14.916   4.430   5.787
39053W        W39534  17.694   5.482   6.614
39054W        W39535  15.975   6.544   5.162
39055W        W39536  16.982   7.077   6.486
39056W        W39537  16.976   4.407   6.250
39057W        W39538  16.183   7.115   6.311
39058W        W39539  17.671   5.388   6.078
39059W        W39540  14.654   4.709   6.116
39060W        W39541  17.514   4.504   5.134
39061W        W39542  16.810   6.354   5.129
39062W        W39543  16.066   6.945   4.742
39063W        W39544  15.181   4.125   4.000
39064W        W39545  16.285   3.779   5.810
39065W        W39546  15.313   6.899   3.658
39066W        W39547  15.687   5.365   4.409
39067W        W39548  16.341   5.994   6.722
39068W        W39549  16.171   4.352   4.712
39069W        W39550  17.527   3.949   5.140
39070W        W39551  17.247   7.231   5.468
39071W        W39552  16.659   6.879   5.808
39072W        W39553  16.055   5.916   5.769
39073W        W39554  15.519   4.142   4.664
39074W        W39555  16.041   6.439   5.624
39075W        W39556  15.524   4.370   3.689
39076W        W39557  16.325   4.979   6.083
39077W        W39558  17.173   3.845   5.953
39078W        W39559  14.593   5.688   5.838
39079W        W39560  16.297   5.506   3.996
39080W        W39561  15.565   3.821   3.766
39081W        W39562  16.303   4.902   4.817
39082W        W39563  17.273   3.878   6.516
39083W        W39564  15.861   5.890   6.625
39084W        W39565  16.665   5.672   6.842
39085W        W39566  17.282   5.702   6.735
39086W        W39567  16.566   3.842   7.240
39087W        W39568  15.788   4.458   5.633
39088W        W39569  15.214   4.414   5.031
39089W        W39570  15.000   7.126   4.707
39090W        W39571  16.332   6.456   6.832
39091W        W39572  15.367   5.941   4.191
39092W        W39573  17.047   5.326   5.412
39093W        W39574  17.327   5.125   5.811
39094W        W39575  16.532   5.799   5.745
39095W        W39576  17.002   6.173   3.877
39096W        W39577  16.674   4.194   5.205
39097W        W39578  14.647   7.061   6.504
39098W        W39579  15.064   6.287   6.036
39099W        W39580  14.631   7.133   4.268
39100W        W39581  16.530   4.403   6.074
39101W        W39582  15.893   6.426   3.923
39102W        W39583  17.798   6.808   4.109
39103W        W39584  16.773   5.461   4.123
39104W        W39585  15.616   4.652   4.640
39105W        W39586  16.448   4.562   3.692
39106W        W39587  17.032   6.127   6.870
39107W        W39588  17.385   4.033   4.487
39108W        W39589  14.715   3.881   3.935
39109W        W39590  15.800   6.116   5.317
39110W        W39591  15.542   6.068   3.715
39111W        W39592  14.783   6.309   4.483
39112W        W39593  15.287   5.379   6.925
39113W        W39594  15.991   3.939   7.111
39114W        W39595  16.700   4.081   6.467
39115W        W39596  15.895   3.849   4.748
39116W        W39597  16.954   3.926   4.253
39117W        W39598  14.899   3.858   5.830
39118W        W39599  14.947   4.821   5.200
39119W        W39600  17.636   3.929   5.606
39120W        W39601  15.058   4.427   4.420
39121W        W39602  17.629   4.115   6.036
39122W        W39603  15.317   4.076   5.540
39123W        W39604  16.431   4.648   6.480
39124W        W39605  14.579   4.338   3.958
39125W        W39606  15.365   5.727   6.519
39126W        W39607  16.723   5.125   5.698
39127W        W39608  16.590   7.204   3.994
39128W        W39609  14.736   5.711   3.691
39129W        W39610  15.471   6.122   6.817
39130W        W39611  14.992   5.289   6.448
39131W        W39612  15.983   5.394   6.242
39132W        W39613  17.751   3.753   6.504
39133W        W39614  17.000   5.895   4.280
39134W        W39615  17.474   7.195   3.975
39135W        W39616  16.651   5.185   7.117
39136W        W39617  14.981   6.152   7.157
39137W        W39618  16.213   7.132   7.207
39138W        W39619  17.607   6.360   3.877
39139W        W39620  15.376   4.453   6.763
39140W        W39621  15.810   6.447   6.625
39141W        W39622  17.147   7.097   4.391
39142W        W39623  17.386   5.716   5.758
39143W        W39624  16.105   5.201   7.182
39144W        W39625  15.608   6.380   4.376
39145W        W39626  17.363   5.878   4.640
39146W        W39627  15.131   4.504   6.364
39147W        W39628  16.460   6.566   4.828
39148W        W39629  16.432   3.759   6.728
39149W        W39630  17.212   6.464   5.807
39150W        W39631  17.515   6.808   5.515
39151W        W39632  16.734   6.610   3.943
39152W        W39633  14.744   6.502   6.785
39153W        W39634  15.487   4.494   6.023
39154W        W39635  15.457   3.842   5.133
39155W        W39636  17.078   4.684   5.825
39156W        W39637  15.876   5.855   4.025
39157W        W39638  15.201   6.555   6.947
39158W        W39639  17.588   7.237   4.744
39159W        W39640  15.687   4.257   5.189
39160W        W39641  15.456   5.750   5.279
39161W        W39642  15.769   7.161   6.029
39162W        W39643  16.995   5.445   5.994
39163W        W39644  15.954   3.744   6.628
39164W        W39645  17.660   6.546   5.086
39165W        W39646  17.689   5.102   4.991
39166W        W39647  15.806   4.775   5.207
39167W        W39648  16.051   5.037   6.531
39168W        W39649  17.162   6.190   6.394
39169W        W39650  15.812   4.644   6.506
39170W        W39651  15.791   7.110   5.122
39171W        W39652  15.108   7.069   6.756
39172W        W39653  15.220   6.430   3.886
39173W        W39654  17.737   6.188   4.696
39174W        W39655  15.341   4.980   6.582
39175W        W39656  15.859   5.967   4.534
39176W        W39657  16.958   5.349   6.615
39177W        W39658  16.849   4.977   6.159
39178W        W39659  15.409   5.349   6.188
39179W        W39660  17.619   7.237   6.017
39180W        W39661  17.410   3.871   7.011
39181W        W39662  15.074   4.021   6.598
39182W        W39663  15.413   5.044   5.651
39183W        W39664  15.782   4.858   3.773
39184W        W39665  14.585   6.617   6.318
39185W        W39666  16.170   5.326   5.761
39186W        W39667  15.993   4.351   3.866
39187W        W39668  15.128   5.167   4.647
39188W        W39669  14.899   7.019   6.084
39189W        W39670  17.694   5.245   4.192
39190W        W39671  17.225   6.370   4.841
39191W        W39672  17.309   6.233   4.325
39192W        W39673  16.211   5.291   4.410
39193W        W39674  17.398   4.095   3.933
39194W        W39675  15.172   5.295   5.326
39195W        W39676  15.466   6.234   4.975
39196W        W39677  17.229   4.854   4.940
39197W        W39678  16.252   4.233   5.636
39198W        W39679  14.671   6.961   5.084
39199W        W39680  15.180   6.148   4.620
39200W        W39681  15.095   3.765   7.173
39201W        W39682  16.214   6.618   7.275
39202W        W39683  17.323   5.763   3.945
39203W        W39684  16.618   7.284   6.157
39204W        W39685  17.475   6.006   7.194
39205W        W39686  16.290   3.716   4.474
39206W        W39687  17.003   4.585   5.333
39207W        W39688  14.689   6.172   5.665
39208W        W39689  15.942   4.134   4.306
39209W        W39690  15.746   5.618   7.155
39210W        W39691  16.740   4.599   4.869
39211W        W39692  16.945   6.009   5.991
39212W        W39693  15.099   6.614   6.426
39213W        W39694  15.690   6.597   7.149
39214W        W39695  15.541   4.394   4.163
39215W        W39696  17.058   4.536   4.488
39216W        W39697  17.016   6.644   6.725
39217W        W39698  15.701   5.236   5.324
39218W        W39699  15.356   6.934   6.189
39219W        W39700  14.964   5.723   6.786
39220W        W39701  16.959   5.985   5.474
39221W        W39702  15.395   5.634   4.716
39222W        W39703  15.766   6.641   6.111
39223W        W39704  16.144   4.060   5.152
39224W        W39705  14.755   6.044   4.082
39225W        W39706  16.274   4.995   3.952
39226W        W39707  14.920   5.544   4.971
39227W        W39708  16.210   4.186   6.435
39228W        W39709  16.629   6.898   7.113
39229W        W39710  17.595   6.790   7.246
39230W        W39711  15.334   7.246   5.724
39231W        W39712  16.723   5.135   5.111
39232W        W39713  16.490   3.747   5.001
39233W        W39714  15.549   6.731   4.838
39234W        W39715  16.048   4.472   6.063
39235W        W39716  15.748   3.841   5.532
39236W        W39717  14.811   6.663   4.080
39237W        W39718  16.627   6.027   4.798
39238W        W39719  15.502   6.822   6.677
39239W        W39720  14.979   5.645   4.373
39240W        W39721  14.864   4.188   5.372
39241W        W39722  16.412   6.153   5.429
39242W        W39723  14.664   4.007   4.449
39243W        W39724  17.328   5.213   6.376
39244W        W39725  17.205   4.599   3.948
39245W        W39726  16.383   6.755   5.427
39246W        W39727  15.795   6.859   4.338
39247W        W39728  17.077   3.762   3.768
39248W        W39729  14.877   7.022   5.509
39249W        W39730  17.074   4.780   7.144
39250W        W39731  15.057   4.310   7.143
39251W        W39732  14.788   4.910   4.476
39252W        W39733  15.479   4.899   4.201
39253W        W39734  17.242   5.226   7.018
39254W        W39735  15.585   5.507   5.727
39255W        W39736  17.059   3.793   4.847
39256W        W39737  16.190   7.224   5.350
39257W        W39738  17.404   6.686   6.287
39258W        W39739  16.988   6.835   5.398
39259W        W39740  17.007   5.815   4.992
39260W        W39741  16.469   4.040   4.063
39261W        W39742  15.838   5.303   3.948
39262W        W39743  16.696   5.810   3.815
39263W        W39744  17.632   6.010   6.563
39264W        W39745  17.286   6.711   4.030
39265W        W39746  15.901   4.386   6.936
39266W        W39747  15.721   4.970   6.177
39267W        W39748  16.913   4.415   6.831
39268W        W39749  14.757   4.886   6.608
39269W        W39750  16.517   5.363   6.334
39270W        W39751  14.874   6.121   4.991
39271W        W39752  15.021   5.418   5.881
39272W        W39753  17.338   5.704   6.231
39273W        W39754  17.110   7.084   7.042
39274W        W39755  17.006   4.823   6.595
39275W        W39756  17.283   6.877   5.000
39276W        W39757  16.285   6.597   6.323
39277W        W39758  15.770   6.952   5.592
39278W        W39759  17.575   6.123   6.011
39279W        W39760  16.625   6.195   7.148
39280W        W39761  15.230   6.148   5.487
39281W        W39762  17.576   5.907   5.132
39282W        W39763  17.217   6.973   5.883
39283W        W39764  15.195   6.702   5.753
39284W        W39765  16.216   4.754   6.963
39285W        W39766  16.667   6.920   4.474
39286W        W39767  15.975   6.175   7.112
39287W        W39768  16.101   6.413   4.489
39288W        W39769  15.322   5.153   3.748
39289W        W39770  14.661   7.239  10.648
39290W        W39771  15.037   6.132  10.171
39291W        W39772  17.742   5.862   7.941
39292W        W39773  15.790   6.938   7.494
39293W        W39774  15.388   4.938   8.641
39294W        W39775  16.379   5.753   8.075
39295W        W39776  16.054   6.845  10.430
39296W        W39777  14.703   4.406  10.393
39297W        W39778  15.465   3.686  10.195
39298W        W39779  17.159   4.074   9.082
39299W        W39780  16.808   4.945   7.652
39300W        W39781  17.378   4.379  10.743
39301W        W39782  14.744   4.171   9.868
39302W        W39783  14.843   6.790  10.889
39303W        W39784  16.365   6.180   7.621
39304W        W39785  14.797   4.963   9.314
39305W        W39786  15.690   4.854  10.551
39306W        W39787  16.221   5.089   8.936
39307W        W39788  16.767   6.428   9.305
39308W        W39789  15.267   5.862   9.537
39309W        W39790  14.626   5.390   9.108
39310W        W39791  15.662   5.362  10.300
39311W        W39792  15.549   6.589   8.999
39312W        W39793  16.670   6.278  10.133
39313W        W39794  15.890   4.918   9.358
39314W        W39795  16.182   5.702   9.001
39315W        W39796  17.179   6.475  10.849
39316W        W39797  16.258   5.795  10.859
39317W        W39798  16.239   5.511  10.337
39318W        W39799  14.648   4.902  10.859
39319W        W39800  17.480   6.437  10.458
39320W        W39801  15.061   4.019   8.456
39321W        W39802  15.588   6.277   9.455
39322W        W39803  17.464   4.460   9.312
39323W        W39804  16.181   6.921   9.466
39324W        W39805  15.084   7.173   7.658
39325W        W39806  15.477   7.219   8.334
39326W        W39807  15.274   3.973   9.760
39327W        W39808  17.302   5.413   8.494
39328W        W39809  17.268   5.101   7.521
39329W        W39810  16.476   6.245   9.661
39330W        W39811  16.282   4.575   8.860
39331W        W39812  16.882   6.662   9.854
39332W        W39813  16.655   4.111   8.292
39333W        W39814  15.312   6.805   7.975
39334W        W39815  17.469   4.911   9.048
39335W        W39816  14.927   6.528   8.963
39336W        W39817  16.268   6.878   7.833
39337W        W39818  14.683   6.662   9.461
39338W        W39819  15.474   6.234   9.941
39339W        W39820  15.847   5.594   8.560
39340W        W39821  15.869   3.999   9.653
39341W        W39822  15.317   5.633   7.418
39342W        W39823  14.972   4.666   7.597
39343W        W39824  15.034   6.622   8.391
39344W        W39825  16.165   6.105   8.639
39345W        W39826  17.497   6.964  10.353
39346W        W39827  16.423   4.606   8.037
39347W        W39828  17.483   4.857  10.407
39348W        W39829  16.823   5.805  10.025
39349W        W39830  14.589   5.356   8.231
39350W        W39831  15.700   5.771   9.804
39351W        W39832  16.904   5.035   8.182
39352W        W39833  16.781   5.525   8.286
39353W        W39834  15.124   4.945   9.760
39354W        W39835  15.109   4.821  10.682
39355W        W39836  14.999   3.738   8.841
39356W        W39837  16.767   4.085   9.402
39357W        W39838  16.415   4.270  10.565
39358W        W39839  16.770   4.419   7.743
39359W        W39840  16.920   3.893  10.536
39360W        W39841  17.939   6.194  10.658
39361W        W39842  17.369   4.361  10.254
39362W        W39843  17.169   4.299   8.524
39363W        W39844  17.562   5.433  10.928
39364W        W39845  15.302   7.009   8.914
39365W        W39846  15.960   4.726   7.900
39366W        W39847  15.529   4.010  10.564
39367W        W39848  17.581   4.494   8.245
39368W        W39849  15.691   7.193  10.661
39369W        W39850  15.617   3.729   7.896
39370W        W39851  14.995   5.715   9.078
39371W        W39852  16.912   4.302   7.308
39372W        W39853  16.530   5.040  10.332
39373W        W39854  16.623   6.379   8.035
39374W        W39855  17.023   5.673  10.775
39375W        W39856  16.697   3.650   9.084
39376W        W39857  15.309   4.553   9.147
39377W        W39858  14.863   5.753   9.921
39378W        W39859  16.722   6.946   8.627
39379W        W39860  16.553   6.890  10.266
39380W        W39861  16.331   5.432   8.532
39381W        W39862  16.332   5.778   9.867
39382W        W39863  16.549   4.664   9.312
39383W        W39864  17.401   4.962   8.150
39384W        W39865  17.688   4.695   7.792
39385W        W39866  17.497   6.735   8.181
39386W        W39867  17.331   6.338   8.977
39387W        W39868  17.227   5.417   7.955
39388W        W39869  16.660   5.627   8.941
39389W        W39870  17.541   5.415   9.008
39390W        W39871  14.916   4.430   9.432
39391W        W39872  17.694   5.482  10.259
39392W        W39873  15.975   6.544   8.807
39393W        W39874  16.982   7.077  10.131
39394W        W39875  16.976   4.407   9.895
39395W        W39876  16.183   7.115   9.956
39396W        W39877  17.671   5.388   9.723
39397W        W39878  14.654   4.709   9.761
39398W        W39879  17.514   4.504   8.779
39399W        W39880  16.810   6.354   8.774
39400W        W39881  16.066   6.945   8.387
39401W        W39882  15.181   4.125   7.645
39402W        W39883  16.285   3.779   9.455
39403W        W39884  15.313   6.899   7.303
39404W        W39885  15.687   5.365   8.054
39405W        W39886  16.171   4.352   8.357
39406W        W39887  17.527   3.949   8.785
39407W        W39888  17.247   7.231   9.113
39408W        W39889  16.659   6.879   9.453
39409W        W39890  16.055   5.916   9.414
39410W        W39891  15.519   4.142   8.309
39411W        W39892  16.041   6.439   9.269
39412W        W39893  15.524   4.370   7.334
39413W        W39894  16.325   4.979   9.728
39414W        W39895  17.173   3.845   9.598
39415W        W39896  14.593   5.688   9.483
39416W        W39897  16.297   5.506   7.641
39417W        W39898  15.565   3.821   7.411
39418W        W39899  16.303   4.902   8.462
39419W        W39900  17.273   3.878  10.161
39420W        W39901  15.861   5.890  10.270
39421W        W39902  16.665   5.672  10.487
39422W        W39903  17.282   5.702  10.380
39423W        W39904  16.566   3.842  10.885
39424W        W39905  15.788   4.458   9.278
39425W        W39906  15.214   4.414   8.676
39426W        W39907  15.000   7.126   8.352
39427W        W39908  16.332   6.456  10.477
39428W        W39909  15.367   5.941   7.836
39429W        W39910  17.047   5.326   9.057
39430W        W39911  17.327   5.125   9.456
39431W        W39912  16.532   5.799   9.390
39432W        W39913  17.002   6.173   7.522
39433W        W39914  16.674   4.194   8.850
39434W        W39915  14.647   7.061  10.149
39435W        W39916  15.064   6.287   9.681
39436W        W39917  14.631   7.133   7.913
39437W        W39918  16.530   4.403   9.719
39438W        W39919  15.893   6.426   7.568
39439W        W39920  17.798   6.808   7.754
39440W        W39921  16.773   5.461   7.768
39441W        W39922  15.616   4.652   8.285
39442W        W39923  16.448   4.562   7.337
39443W        W39924  17.032   6.127  10.515
39444W        W39925  17.385   4.033   8.132
39445W        W39926  14.715   3.881   7.580
39446W        W39927  16.001   6.200   9.870
39447W        W39928  15.800   6.116   8.962
39448W        W39929  15.542   6.068   7.360
39449W        W39930  14.783   6.309   8.128
39450W        W39931  15.287   5.379  10.570
39451W        W39932  15.991   3.939  10.756
39452W        W39933  16.700   4.081  10.112
39453W        W39934  15.895   3.849   8.393
39454W        W39935  16.954   3.926   7.898
39455W        W39936  14.899   3.858   9.475
39456W        W39937  14.947   4.821   8.845
39457W        W39938  17.636   3.929   9.251
39458W        W39939  15.058   4.427   8.065
39459W        W39940  17.629   4.115   9.681
39460W        W39941  15.317   4.076   9.185
39461W        W39942  16.431   4.648  10.125
39462W        W39943  14.579   4.338   7.603
39463W        W39944  15.365   5.727  10.164
39464W        W39945  16.723   5.125   9.343
39465W        W39946  16.590   7.204   7.639
39466W        W39947  14.736   5.711   7.336
39467W        W39948  15.471   6.122  10.462
39468W        W39949  14.992   5.289  10.093
39469W        W39950  15.983   5.394   9.887
39470W        W39951  17.751   3.753  10.149
39471W        W39952  17.000   5.895   7.925
39472W        W39953  16.651   5.185  10.762
39473W        W39954  14.981   6.152  10.802
39474W        W39955  16.213   7.132  10.852
39475W        W39956  16.068   3.761   7.579
39476W        W39957  17.607   6.360   7.522
39477W        W39958  15.376   4.453  10.408
39478W        W39959  15.810   6.447  10.270
39479W        W39960  17.147   7.097   8.036
39480W        W39961  17.386   5.716   9.403
39481W        W39962  15.636   4.132  10.070
39482W        W39963  16.105   5.201  10.827
39483W        W39964  15.608   6.380   8.021
39484W        W39965  17.363   5.878   8.285
39485W        W39966  15.131   4.504  10.009
39486W        W39967  16.460   6.566   8.473
39487W        W39968  16.432   3.759  10.373
39488W        W39969  17.212   6.464   9.452
39489W        W39970  17.515   6.808   9.160
39490W        W39971  16.734   6.610   7.588
39491W        W39972  14.744   6.502  10.430
39492W        W39973  15.487   4.494   9.668
39493W        W39974  15.457   3.842   8.778
39494W        W39975  17.078   4.684   9.470
39495W        W39976  15.876   5.855   7.670
39496W        W39977  15.201   6.555  10.592
39497W        W39978  17.588   7.237   8.389
39498W        W39979  15.687   4.257   8.834
39499W        W39980  15.456   5.750   8.924
39500W        W39981  15.769   7.161   9.674
39501W        W39982  16.995   5.445   9.639
39502W        W39983  14.844   5.243   7.554
39503W        W39984  15.954   3.744  10.273
39504W        W39985  17.660   6.546   8.731
39505W        W39986  17.689   5.102   8.636
39506W        W39987  15.806   4.775   8.852
39507W        W39988  16.051   5.037  10.176
39508W        W39989  17.162   6.190  10.039
39509W        W39990  15.812   4.644  10.151
39510W        W39991  15.791   7.110   8.767
39511W        W39992  15.108   7.069  10.401
39512W        W39993  15.220   6.430   7.531
39513W        W39994  17.737   6.188   8.341
39514W        W39995  15.341   4.980  10.227
39515W        W39996  15.859   5.967   8.179
39516W        W39997  16.958   5.349  10.260
39517W        W39998  16.849   4.977   9.804
39518W        W39999  15.409   5.349   9.833
39519W        W40000  17.619   7.237   9.662
39520W        W40001  17.410   3.871  10.656
39521W        W40002  15.074   4.021  10.243
39522W        W40003  15.413   5.044   9.296
39523W        W40004  15.782   4.858   7.418
39524W        W40005  14.585   6.617   9.963
39525W        W40006  16.170   5.326   9.406
39526W        W40007  15.993   4.351   7.511
39527W        W40008  15.128   5.167   8.292
39528W        W40009  14.899   7.019   9.729
39529W        W40010  17.694   5.245   7.837
39530W        W40011  17.225   6.370   8.486
39531W        W40012  14.823   5.294  10.663
39532W        W40013  17.309   6.233   7.970
39533W        W40014  16.211   5.291   8.055
39534W        W40015  17.398   4.095   7.578
39535W        W40016  17.463   4.702   9.764
39536W        W40017  15.172   5.295   8.971
39537W        W40018  15.466   6.234   8.620
39538W        W40019  17.229   4.854   8.585
39539W        W40020  16.252   4.233   9.281
39540W        W40021  14.671   6.961   8.729
39541W        W40022  15.180   6.148   8.265
39542W        W40023  15.095   3.765  10.818
39543W        W40024  16.214   6.618  10.920
39544W        W40025  17.323   5.763   7.590
39545W        W40026  16.618   7.284   9.802
39546W        W40027  17.475   6.006  10.839
39547W        W40028  16.290   3.716   8.119
39548W        W40029  17.003   4.585   8.978
39549W        W40030  14.689   6.172   9.310
39550W        W40031  15.942   4.134   7.951
39551W        W40032  15.746   5.618  10.800
39552W        W40033  16.740   4.599   8.514
39553W        W40034  16.945   6.009   9.636
39554W        W40035  15.099   6.614  10.071
39555W        W40036  15.690   6.597  10.794
39556W        W40037  15.541   4.394   7.808
39557W        W40038  17.016   6.644  10.370
39558W        W40039  15.701   5.236   8.969
39559W        W40040  15.356   6.934   9.834
39560W        W40041  14.964   5.723  10.431
39561W        W40042  16.959   5.985   9.119
39562W        W40043  15.395   5.634   8.361
39563W        W40044  15.766   6.641   9.756
39564W        W40045  16.144   4.060   8.797
39565W        W40046  14.755   6.044   7.727
39566W        W40047  16.274   4.995   7.597
39567W        W40048  14.920   5.544   8.616
39568W        W40049  16.210   4.186  10.080
39569W        W40050  16.629   6.898  10.758
39570W        W40051  17.595   6.790  10.891
39571W        W40052  15.334   7.246   9.369
39572W        W40053  16.723   5.135   8.756
39573W        W40054  16.490   3.747   8.646
39574W        W40055  15.549   6.731   8.483
39575W        W40056  16.048   4.472   9.708
39576W        W40057  15.748   3.841   9.177
39577W        W40058  14.811   6.663   7.725
39578W        W40059  16.627   6.027   8.443
39579W        W40060  15.502   6.822  10.322
39580W        W40061  14.979   5.645   8.018
39581W        W40062  14.864   4.188   9.017
39582W        W40063  16.412   6.153   9.074
39583W        W40064  14.664   4.007   8.094
39584W        W40065  17.328   5.213  10.021
39585W        W40066  17.205   4.599   7.593
39586W        W40067  16.383   6.755   9.072
39587W        W40068  15.795   6.859   7.983
39588W        W40069  17.077   3.762   7.413
39589W        W40070  14.877   7.022   9.154
39590W        W40071  17.074   4.780  10.789
39591W        W40072  15.057   4.310  10.788
39592W        W40073  14.788   4.910   8.121
39593W        W40074  15.479   4.899   7.846
39594W        W40075  17.242   5.226  10.663
39595W        W40076  15.585   5.507   9.372
39596W        W40077  17.059   3.793   8.492
39597W        W40078  16.190   7.224   8.995
39598W        W40079  17.404   6.686   9.932
39599W        W40080  16.988   6.835   9.043
39600W        W40081  17.007   5.815   8.637
39601W        W40082  16.469   4.040   7.708
39602W        W40083  15.838   5.303   7.593
39603W        W40084  16.696   5.810   7.460
39604W        W40085  17.632   6.010  10.208
39605W        W40086  17.286   6.711   7.675
39606W        W40087  15.901   4.386  10.581
39607W        W40088  15.721   4.970   9.822
39608W        W40089  16.913   4.415  10.476
39609W        W40090  14.757   4.886  10.253
39610W        W40091  16.517   5.363   9.979
39611W        W40092  14.874   6.121   8.636
39612W        W40093  15.021   5.418   9.526
39613W        W40094  17.338   5.704   9.876
39614W        W40095  17.110   7.084  10.687
39615W        W40096  17.006   4.823  10.240
39616W        W40097  17.283   6.877   8.645
39617W        W40098  16.285   6.597   9.968
39618W        W40099  15.770   6.952   9.237
39619W        W40100  17.575   6.123   9.656
39620W        W40101  16.625   6.195  10.793
39621W        W40102  15.230   6.148   9.132
39622W        W40103  17.576   5.907   8.777
39623W        W40104  17.217   6.973   9.528
39624W        W40105  15.195   6.702   9.398
39625W        W40106  16.216   4.754  10.608
39626W        W40107  16.667   6.920   8.119
39627W        W40108  15.975   6.175  10.757
39628W        W40109  16.101   6.413   8.134
39629W        W40110  15.322   5.153   7.393
39630W        W40111  14.661   7.239  14.292
39631W        W40112  15.037   6.132  13.815
39632W        W40113  17.742   5.862  11.585
39633W        W40114  15.790   6.938  11.138
39634W        W40115  15.873   5.090  12.121
39635W        W40116  15.388   4.938  12.285
39636W        W40117  16.379   5.753  11.719
39637W        W40118  16.054   6.845  14.074
39638W        W40119  14.703   4.406  14.037
39639W        W40120  15.465   3.686  13.839
39640W        W40121  17.159   4.074  12.726
39641W        W40122  16.808   4.945  11.296
39642W        W40123  17.378   4.379  14.387
39643W        W40124  14.744   4.171  13.512
39644W        W40125  14.843   6.790  14.533
39645W        W40126  16.365   6.180  11.265
39646W        W40127  14.797   4.963  12.958
39647W        W40128  15.690   4.854  14.195
39648W        W40129  16.221   5.089  12.580
39649W        W40130  16.767   6.428  12.949
39650W        W40131  15.267   5.862  13.181
39651W        W40132  14.626   5.390  12.752
39652W        W40133  15.662   5.362  13.944
39653W        W40134  15.549   6.589  12.643
39654W        W40135  16.670   6.278  13.777
39655W        W40136  15.890   4.918  13.002
39656W        W40137  16.182   5.702  12.645
39657W        W40138  17.179   6.475  14.493
39658W        W40139  16.258   5.795  14.503
39659W        W40140  16.239   5.511  13.981
39660W        W40141  14.648   4.902  14.503
39661W        W40142  17.480   6.437  14.102
39662W        W40143  15.061   4.019  12.100
39663W        W40144  15.588   6.277  13.099
39664W        W40145  17.464   4.460  12.956
39665W        W40146  16.181   6.921  13.110
39666W        W40147  15.084   7.173  11.302
39667W        W40148  15.477   7.219  11.978
39668W        W40149  15.274   3.973  13.404
39669W        W40150  17.302   5.413  12.138
39670W        W40151  17.268   5.101  11.165
39671W        W40152  16.476   6.245  13.305
39672W        W40153  16.282   4.575  12.504
39673W        W40154  16.882   6.662  13.498
39674W        W40155  16.655   4.111  11.936
39675W        W40156  15.312   6.805  11.619
39676W        W40157  14.683   4.304  12.218
39677W        W40158  17.469   4.911  12.692
39678W        W40159  14.927   6.528  12.607
39679W        W40160  16.268   6.878  11.477
39680W        W40161  14.683   6.662  13.105
39681W        W40162  15.474   6.234  13.585
39682W        W40163  15.847   5.594  12.204
39683W        W40164  15.869   3.999  13.297
39684W        W40165  15.317   5.633  11.062
39685W        W40166  14.972   4.666  11.241
39686W        W40167  15.034   6.622  12.035
39687W        W40168  16.165   6.105  12.283
39688W        W40169  17.497   6.964  13.997
39689W        W40170  16.423   4.606  11.681
39690W        W40171  17.483   4.857  14.051
39691W        W40172  16.823   5.805  13.669
39692W        W40173  14.589   5.356  11.875
39693W        W40174  15.700   5.771  13.448
39694W        W40175  16.904   5.035  11.826
39695W        W40176  16.781   5.525  11.930
39696W        W40177  15.124   4.945  13.404
39697W        W40178  15.109   4.821  14.326
39698W        W40179  14.999   3.738  12.485
39699W        W40180  16.767   4.085  13.046
39700W        W40181  16.415   4.270  14.209
39701W        W40182  16.770   4.419  11.387
39702W        W40183  16.920   3.893  14.180
39703W        W40184  17.939   6.194  14.302
39704W        W40185  17.369   4.361  13.898
39705W        W40186  17.169   4.299  12.168
39706W        W40187  17.562   5.433  14.572
39707W        W40188  15.302   7.009  12.558
39708W        W40189  15.960   4.726  11.544
39709W        W40190  15.529   4.010  14.208
39710W        W40191  17.581   4.494  11.889
39711W        W40192  15.691   7.193  14.305
39712W        W40193  15.617   3.729  11.540
39713W        W40194  14.995   5.715  12.722
39714W        W40195  16.912   4.302  10.952
39715W        W40196  16.530   5.040  13.976
39716W        W40197  16.623   6.379  11.679
39717W        W40198  17.023   5.673  14.419
39718W        W40199  16.697   3.650  12.728
39719W        W40200  15.309   4.553  12.791
39720W        W40201  14.863   5.753  13.565
39721W        W40202  16.722   6.946  12.271
39722W        W40203  16.553   6.890  13.910
39723W        W40204  16.331   5.432  12.176
39724W        W40205  16.332   5.778  13.511
39725W        W40206  16.549   4.664  12.956
39726W        W40207  17.401   4.962  11.794
39727W        W40208  17.688   4.695  11.436
39728W        W40209  17.497   6.735  11.825
39729W        W40210  17.331   6.338  12.621
39730W        W40211  17.227   5.417  11.599
39731W        W40212  16.660   5.627  12.585
39732W        W40213  17.541   5.415  12.652
39733W        W40214  14.916   4.430  13.076
39734W        W40215  17.694   5.482  13.903
39735W        W40216  15.975   6.544  12.451
39736W        W40217  16.982   7.077  13.775
39737W        W40218  16.976   4.407  13.539
39738W        W40219  16.183   7.115  13.600
39739W        W40220  17.671   5.388  13.367
39740W        W40221  14.654   4.709  13.405
39741W        W40222  17.514   4.504  12.423
39742W        W40223  16.810   6.354  12.418
39743W        W40224  16.066   6.945  12.031
39744W        W40225  15.181   4.125  11.289
39745W        W40226  16.285   3.779  13.099
39746W        W40227  15.313   6.899  10.947
39747W        W40228  15.687   5.365  11.698
39748W        W40229  16.341   5.994  14.011
39749W        W40230  16.171   4.352  12.001
39750W        W40231  17.527   3.949  12.429
39751W        W40232  17.247   7.231  12.757
39752W        W40233  16.659   6.879  13.097
39753W        W40234  16.055   5.916  13.058
39754W        W40235  15.519   4.142  11.953
39755W        W40236  16.041   6.439  12.913
39756W        W40237  15.524   4.370  10.978
39757W        W40238  16.325   4.979  13.372
39758W        W40239  17.173   3.845  13.242
39759W        W40240  14.593   5.688  13.127
39760W        W40241  16.297   5.506  11.285
39761W        W40242  15.565   3.821  11.055
39762W        W40243  16.303   4.902  12.106
39763W        W40244  17.273   3.878  13.805
39764W        W40245  15.861   5.890  13.914
39765W        W40246  16.665   5.672  14.131
39766W        W40247  17.282   5.702  14.024
39767W        W40248  16.566   3.842  14.529
39768W        W40249  15.788   4.458  12.922
39769W        W40250  15.214   4.414  12.320
39770W        W40251  15.000   7.126  11.996
39771W        W40252  16.332   6.456  14.121
39772W        W40253  15.367   5.941  11.480
39773W        W40254  17.047   5.326  12.701
39774W        W40255  17.327   5.125  13.100
39775W        W40256  16.532   5.799  13.034
39776W        W40257  17.002   6.173  11.166
39777W        W40258  16.674   4.194  12.494
39778W        W40259  14.647   7.061  13.793
39779W        W40260  15.064   6.287  13.325
39780W        W40261  14.631   7.133  11.557
39781W        W40262  16.530   4.403  13.363
39782W        W40263  15.893   6.426  11.212
39783W        W40264  17.798   6.808  11.398
39784W        W40265  16.773   5.461  11.412
39785W        W40266  15.616   4.652  11.929
39786W        W40267  16.448   4.562  10.981
39787W        W40268  17.032   6.127  14.159
39788W        W40269  17.385   4.033  11.776
39789W        W40270  14.715   3.881  11.224
39790W        W40271  16.001   6.200  13.514
39791W        W40272  15.800   6.116  12.606
39792W        W40273  15.542   6.068  11.004
39793W        W40274  14.783   6.309  11.772
39794W        W40275  15.287   5.379  14.214
39795W        W40276  15.991   3.939  14.400
39796W        W40277  16.700   4.081  13.756
39797W        W40278  15.895   3.849  12.037
39798W        W40279  16.954   3.926  11.542
39799W        W40280  14.899   3.858  13.119
39800W        W40281  14.947   4.821  12.489
39801W        W40282  17.636   3.929  12.895
39802W        W40283  15.058   4.427  11.709
39803W        W40284  17.629   4.115  13.325
39804W        W40285  15.317   4.076  12.829
39805W        W40286  16.431   4.648  13.769
39806W        W40287  14.579   4.338  11.247
39807W        W40288  15.365   5.727  13.808
39808W        W40289  16.723   5.125  12.987
39809W        W40290  16.590   7.204  11.283
39810W        W40291  14.736   5.711  10.980
39811W        W40292  15.471   6.122  14.106
39812W        W40293  14.992   5.289  13.737
39813W        W40294  15.983   5.394  13.531
39814W        W40295  17.751   3.753  13.793
39815W        W40296  17.000   5.895  11.569
39816W        W40297  17.474   7.195  11.264
39817W        W40298  16.651   5.185  14.406
39818W        W40299  14.981   6.152  14.446
39819W        W40300  16.213   7.132  14.496
39820W        W40301  16.068   3.761  11.223
39821W        W40302  17.607   6.360  11.166
39822W        W40303  15.376   4.453  14.052
39823W        W40304  15.810   6.447  13.914
39824W        W40305  17.147   7.097  11.680
39825W        W40306  17.386   5.716  13.047
39826W        W40307  15.636   4.132  13.714
39827W        W40308  16.105   5.201  14.471
39828W        W40309  15.608   6.380  11.665
39829W        W40310  17.363   5.878  11.929
39830W        W40311  15.131   4.504  13.653
39831W        W40312  16.460   6.566  12.117
39832W        W40313  16.432   3.759  14.017
39833W        W40314  17.212   6.464  13.096
39834W        W40315  17.515   6.808  12.804
39835W        W40316  16.734   6.610  11.232
39836W        W40317  15.487   4.494  13.312
39837W        W40318  15.457   3.842  12.422
39838W        W40319  17.078   4.684  13.114
39839W        W40320  15.876   5.855  11.314
39840W        W40321  15.201   6.555  14.236
39841W        W40322  17.588   7.237  12.033
39842W        W40323  15.687   4.257  12.478
39843W        W40324  15.456   5.750  12.568
39844W        W40325  15.769   7.161  13.318
39845W        W40326  16.995   5.445  13.283
39846W        W40327  14.844   5.243  11.198
39847W        W40328  15.954   3.744  13.917
39848W        W40329  17.660   6.546  12.375
39849W        W40330  17.689   5.102  12.280
39850W        W40331  15.806   4.775  12.496
39851W        W40332  16.051   5.037  13.820
39852W        W40333  17.162   6.190  13.683
39853W        W40334  15.812   4.644  13.795
39854W        W40335  15.791   7.110  12.411
39855W        W40336  15.108   7.069  14.045
39856W        W40337  15.220   6.430  11.175
39857W        W40338  17.737   6.188  11.985
39858W        W40339  15.341   4.980  13.871
39859W        W40340  15.859   5.967  11.823
39860W        W40341  16.958   5.349  13.904
39861W        W40342  16.849   4.977  13.448
39862W        W40343  15.409   5.349  13.477
39863W        W40344  17.619   7.237  13.306
39864W        W40345  17.410   3.871  14.300
39865W        W40346  15.074   4.021  13.887
39866W        W40347  15.413   5.044  12.940
39867W        W40348  15.782   4.858  11.062
39868W        W40349  14.585   6.617  13.607
39869W        W40350  16.170   5.326  13.050
39870W        W40351  15.993   4.351  11.155
39871W        W40352  15.128   5.167  11.936
39872W        W40353  14.899   7.019  13.373
39873W        W40354  17.694   5.245  11.481
39874W        W40355  17.225   6.370  12.130
39875W        W40356  14.823   5.294  14.307
39876W        W40357  17.309   6.233  11.614
39877W        W40358  16.211   5.291  11.699
39878W        W40359  17.398   4.095  11.222
39879W        W40360  17.463   4.702  13.408
39880W        W40361  15.172   5.295  12.615
39881W        W40362  15.466   6.234  12.264
39882W        W40363  17.229   4.854  12.229
39883W        W40364  16.252   4.233  12.925
39884W        W40365  14.671   6.961  12.373
39885W        W40366  15.180   6.148  11.909
39886W        W40367  15.095   3.765  14.462
39887W        W40368  16.214   6.618  14.564
39888W        W40369  17.323   5.763  11.234
39889W        W40370  16.618   7.284  13.446
39890W        W40371  17.475   6.006  14.483
39891W        W40372  16.290   3.716  11.763
39892W        W40373  17.003   4.585  12.622
39893W        W40374  14.689   6.172  12.954
39894W        W40375  15.942   4.134  11.595
39895W        W40376  15.746   5.618  14.444
39896W        W40377  16.740   4.599  12.158
39897W        W40378  16.945   6.009  13.280
39898W        W40379  15.099   6.614  13.715
39899W        W40380  15.690   6.597  14.438
39900W        W40381  15.541   4.394  11.452
39901W        W40382  17.058   4.536  11.777
39902W        W40383  17.016   6.644  14.014
39903W        W40384  15.701   5.236  12.613
39904W        W40385  15.356   6.934  13.478
39905W        W40386  14.964   5.723  14.075
39906W        W40387  16.959   5.985  12.763
39907W        W40388  15.395   5.634  12.005
39908W        W40389  15.766   6.641  13.400
39909W        W40390  16.144   4.060  12.441
39910W        W40391  14.755   6.044  11.371
39911W        W40392  16.274   4.995  11.241
39912W        W40393  14.920   5.544  12.260
39913W        W40394  16.210   4.186  13.724
39914W        W40395  16.629   6.898  14.402
39915W        W40396  17.595   6.790  14.535
39916W        W40397  15.334   7.246  13.013
39917W        W40398  16.723   5.135  12.400
39918W        W40399  16.490   3.747  12.290
39919W        W40400  15.549   6.731  12.127
39920W        W40401  16.048   4.472  13.352
39921W        W40402  15.748   3.841  12.821
39922W        W40403  14.811   6.663  11.369
39923W        W40404  16.627   6.027  12.087
39924W        W40405  14.979   5.645  11.662
39925W        W40406  14.864   4.188  12.661
39926W        W40407  16.412   6.153  12.718
39927W        W40408  14.664   4.007  11.738
39928W        W40409  17.328   5.213  13.665
39929W        W40410  17.205   4.599  11.237
39930W        W40411  16.383   6.755  12.716
39931W        W40412  15.795   6.859  11.627
39932W        W40413  17.077   3.762  11.057
39933W        W40414  14.877   7.022  12.798
39934W        W40415  17.074   4.780  14.433
39935W        W40416  15.057   4.310  14.432
39936W        W40417  14.788   4.910  11.765
39937W        W40418  15.479   4.899  11.490
39938W        W40419  17.242   5.226  14.307
39939W        W40420  15.585   5.507  13.016
39940W        W40421  17.059   3.793  12.136
39941W        W40422  16.190   7.224  12.639
39942W        W40423  17.404   6.686  13.576
39943W        W40424  16.988   6.835  12.687
39944W        W40425  17.007   5.815  12.281
39945W        W40426  15.838   5.303  11.237
39946W        W40427  16.696   5.810  11.104
39947W        W40428  17.632   6.010  13.852
39948W        W40429  17.286   6.711  11.319
39949W        W40430  15.901   4.386  14.225
39950W        W40431  15.721   4.970  13.466
39951W        W40432  16.913   4.415  14.120
39952W        W40433  14.757   4.886  13.897
39953W        W40434  16.517   5.363  13.623
39954W        W40435  14.874   6.121  12.280
39955W        W40436  15.021   5.418  13.170
39956W        W40437  17.338   5.704  13.520
39957W        W40438  17.110   7.084  14.331
39958W        W40439  17.006   4.823  13.884
39959W        W40440  16.285   6.597  13.612
39960W        W40441  15.770   6.952  12.881
39961W        W40442  17.575   6.123  13.300
39962W        W40443  16.625   6.195  14.437
39963W        W40444  15.230   6.148  12.776
39964W        W40445  17.576   5.907  12.421
39965W        W40446  17.217   6.973  13.172
39966W        W40447  15.195   6.702  13.042
39967W        W40448  16.216   4.754  14.252
39968W        W40449  16.667   6.920  11.763
39969W        W40450  15.975   6.175  14.401
39970W        W40451  16.101   6.413  11.778
39971W        W40452  15.322   5.153  11.037
39972W        W40453  15.037   6.132  17.459
39973W        W40454  17.742   5.862  15.229
39974W        W40455  15.790   6.938  14.782
39975W        W40456  15.873   5.090  15.765
39976W        W40457  15.388   4.938  15.929
39977W        W40458  16.379   5.753  15.363
39978W        W40459  16.054   6.845  17.718
39979W        W40460  14.703   4.406  17.681
39980W        W40461  15.465   3.686  17.483
39981W        W40462  17.159   4.074  16.370
39982W        W40463  16.808   4.945  14.940
39983W        W40464  14.744   4.171  17.156
39984W        W40465  16.365   6.180  14.909
39985W        W40466  14.797   4.963  16.602
39986W        W40467  16.221   5.089  16.224
39987W        W40468  16.767   6.428  16.593
39988W        W40469  15.267   5.862  16.825
39989W        W40470  14.626   5.390  16.396
39990W        W40471  15.662   5.362  17.588
39991W        W40472  15.549   6.589  16.287
39992W        W40473  16.670   6.278  17.421
39993W        W40474  15.890   4.918  16.646
39994W        W40475  16.182   5.702  16.289
39995W        W40476  16.239   5.511  17.625
39996W        W40477  17.480   6.437  17.746
39997W        W40478  15.061   4.019  15.744
39998W        W40479  15.588   6.277  16.743
39999W        W40480  17.464   4.460  16.600
40000W        W40481  16.181   6.921  16.754
40001W        W40482  15.084   7.173  14.946
40002W        W40483  15.477   7.219  15.622
40003W        W40484  15.274   3.973  17.048
40004W        W40485  17.302   5.413  15.782
40005W        W40486  17.268   5.101  14.809
40006W        W40487  16.476   6.245  16.949
40007W        W40488  16.282   4.575  16.148
40008W        W40489  16.882   6.662  17.142
40009W        W40490  16.655   4.111  15.580
40010W        W40491  15.312   6.805  15.263
40011W        W40492  14.683   4.304  15.862
40012W        W40493  17.469   4.911  16.336
40013W        W40494  14.927   6.528  16.251
40014W        W40495  16.268   6.878  15.121
40015W        W40496  14.683   6.662  16.749
40016W        W40497  15.474   6.234  17.229
40017W        W40498  15.847   5.594  15.848
40018W        W40499  15.869   3.999  16.941
40019W        W40500  15.317   5.633  14.706
40020W        W40501  14.972   4.666  14.885
40021W        W40502  15.034   6.622  15.679
40022W        W40503  16.165   6.105  15.927
40023W        W40504  17.497   6.964  17.641
40024W        W40505  16.423   4.606  15.325
40025W        W40506  16.823   5.805  17.313
40026W        W40507  14.589   5.356  15.519
40027W        W40508  15.700   5.771  17.092
40028W        W40509  16.904   5.035  15.470
40029W        W40510  16.781   5.525  15.574
40030W        W40511  15.124   4.945  17.048
40031W        W40512  14.999   3.738  16.129
40032W        W40513  16.767   4.085  16.690
40033W        W40514  16.770   4.419  15.031
40034W        W40515  16.920   3.893  17.824
40035W        W40516  17.939   6.194  17.946
40036W        W40517  17.369   4.361  17.542
40037W        W40518  17.169   4.299  15.812
40038W        W40519  15.302   7.009  16.202
40039W        W40520  17.581   4.494  15.533
40040W        W40521  15.617   3.729  15.184
40041W        W40522  14.995   5.715  16.366
40042W        W40523  16.912   4.302  14.596
40043W        W40524  16.530   5.040  17.620
40044W        W40525  16.623   6.379  15.323
40045W        W40526  16.697   3.650  16.372
40046W        W40527  15.309   4.553  16.435
40047W        W40528  14.863   5.753  17.209
40048W        W40529  16.722   6.946  15.915
40049W        W40530  16.553   6.890  17.554
40050W        W40531  16.331   5.432  15.820
40051W        W40532  16.332   5.778  17.155
40052W        W40533  16.549   4.664  16.600
40053W        W40534  17.401   4.962  15.438
40054W        W40535  17.688   4.695  15.080
40055W        W40536  17.497   6.735  15.469
40056W        W40537  17.331   6.338  16.265
40057W        W40538  17.227   5.417  15.243
40058W        W40539  16.660   5.627  16.229
40059W        W40540  17.541   5.415  16.296
40060W        W40541  14.916   4.430  16.720
40061W        W40542  17.694   5.482  17.547
40062W        W40543  15.975   6.544  16.095
40063W        W40544  16.982   7.077  17.419
40064W        W40545  16.976   4.407  17.183
40065W        W40546  16.183   7.115  17.244
40066W        W40547  17.671   5.388  17.011
40067W        W40548  14.654   4.709  17.049
40068W        W40549  17.514   4.504  16.067
40069W        W40550  16.810   6.354  16.062
40070W        W40551  16.066   6.945  15.675
40071W        W40552  15.181   4.125  14.933
40072W        W40553  16.285   3.779  16.743
40073W        W40554  15.313   6.899  14.591
40074W        W40555  15.687   5.365  15.342
40075W        W40556  16.341   5.994  17.655
40076W        W40557  16.171   4.352  15.645
40077W        W40558  17.527   3.949  16.073
40078W        W40559  17.247   7.231  16.401
40079W        W40560  16.659   6.879  16.741
40080W        W40561  16.055   5.916  16.702
40081W        W40562  15.519   4.142  15.597
40082W        W40563  16.041   6.439  16.557
40083W        W40564  15.524   4.370  14.622
40084W        W40565  16.325   4.979  17.016
40085W        W40566  17.173   3.845  16.886
40086W        W40567  14.593   5.688  16.771
40087W        W40568  16.297   5.506  14.929
40088W        W40569  15.565   3.821  14.699
40089W        W40570  16.303   4.902  15.750
40090W        W40571  17.273   3.878  17.449
40091W        W40572  15.861   5.890  17.558
40092W        W40573  17.282   5.702  17.668
40093W        W40574  15.788   4.458  16.566
40094W        W40575  15.214   4.414  15.964
40095W        W40576  15.000   7.126  15.640
40096W        W40577  16.332   6.456  17.765
40097W        W40578  15.367   5.941  15.124
40098W        W40579  17.047   5.326  16.345
40099W        W40580  17.327   5.125  16.744
40100W        W40581  16.532   5.799  16.678
40101W        W40582  17.002   6.173  14.810
40102W        W40583  16.674   4.194  16.138
40103W        W40584  14.647   7.061  17.437
40104W        W40585  15.064   6.287  16.969
40105W        W40586  14.631   7.133  15.201
40106W        W40587  16.530   4.403  17.007
40107W        W40588  15.893   6.426  14.856
40108W        W40589  17.798   6.808  15.042
40109W        W40590  16.773   5.461  15.056
40110W        W40591  15.616   4.652  15.573
40111W        W40592  16.448   4.562  14.625
40112W        W40593  17.385   4.033  15.420
40113W        W40594  14.715   3.881  14.868
40114W        W40595  16.001   6.200  17.158
40115W        W40596  15.800   6.116  16.250
40116W        W40597  15.542   6.068  14.648
40117W        W40598  14.783   6.309  15.416
40118W        W40599  16.700   4.081  17.400
40119W        W40600  15.895   3.849  15.681
40120W        W40601  14.899   3.858  16.763
40121W        W40602  14.947   4.821  16.133
40122W        W40603  17.636   3.929  16.539
40123W        W40604  15.058   4.427  15.353
40124W        W40605  17.629   4.115  16.969
40125W        W40606  15.317   4.076  16.473
40126W        W40607  16.431   4.648  17.413
40127W        W40608  14.579   4.338  14.891
40128W        W40609  15.365   5.727  17.452
40129W        W40610  16.723   5.125  16.631
40130W        W40611  16.590   7.204  14.927
40131W        W40612  14.736   5.711  14.624
40132W        W40613  14.992   5.289  17.381
40133W        W40614  15.983   5.394  17.175
40134W        W40615  17.751   3.753  17.437
40135W        W40616  17.000   5.895  15.213
40136W        W40617  17.474   7.195  14.908
40137W        W40618  16.068   3.761  14.867
40138W        W40619  17.607   6.360  14.810
40139W        W40620  15.810   6.447  17.558
40140W        W40621  17.147   7.097  15.324
40141W        W40622  17.386   5.716  16.691
40142W        W40623  15.636   4.132  17.358
40143W        W40624  15.608   6.380  15.309
40144W        W40625  17.363   5.878  15.573
40145W        W40626  15.131   4.504  17.297
40146W        W40627  16.460   6.566  15.761
40147W        W40628  16.432   3.759  17.661
40148W        W40629  17.212   6.464  16.740
40149W        W40630  17.515   6.808  16.448
40150W        W40631  16.734   6.610  14.876
40151W        W40632  14.744   6.502  17.718
40152W        W40633  15.487   4.494  16.956
40153W        W40634  15.457   3.842  16.066
40154W        W40635  17.078   4.684  16.758
40155W        W40636  15.876   5.855  14.958
40156W        W40637  17.588   7.237  15.677
40157W        W40638  15.687   4.257  16.122
40158W        W40639  15.456   5.750  16.212
40159W        W40640  15.769   7.161  16.962
40160W        W40641  16.995   5.445  16.927
40161W        W40642  14.844   5.243  14.842
40162W        W40643  15.954   3.744  17.561
40163W        W40644  17.660   6.546  16.019
40164W        W40645  17.689   5.102  15.924
40165W        W40646  15.806   4.775  16.140
40166W        W40647  16.051   5.037  17.464
40167W        W40648  17.162   6.190  17.327
40168W        W40649  15.812   4.644  17.439
40169W        W40650  15.791   7.110  16.055
40170W        W40651  15.220   6.430  14.819
40171W        W40652  17.737   6.188  15.629
40172W        W40653  15.341   4.980  17.515
40173W        W40654  15.859   5.967  15.467
40174W        W40655  16.958   5.349  17.548
40175W        W40656  16.849   4.977  17.092
40176W        W40657  15.409   5.349  17.121
40177W        W40658  17.619   7.237  16.950
40178W        W40659  15.074   4.021  17.531
40179W        W40660  15.413   5.044  16.584
40180W        W40661  15.782   4.858  14.706
40181W        W40662  14.585   6.617  17.251
40182W        W40663  16.170   5.326  16.694
40183W        W40664  15.993   4.351  14.799
40184W        W40665  15.128   5.167  15.580
40185W        W40666  14.899   7.019  17.017
40186W        W40667  17.694   5.245  15.125
40187W        W40668  17.225   6.370  15.774
40188W        W40669  17.309   6.233  15.258
40189W        W40670  16.211   5.291  15.343
40190W        W40671  17.398   4.095  14.866
40191W        W40672  17.463   4.702  17.052
40192W        W40673  15.172   5.295  16.259
40193W        W40674  15.466   6.234  15.908
40194W        W40675  17.229   4.854  15.873
40195W        W40676  16.252   4.233  16.569
40196W        W40677  14.671   6.961  16.017
40197W        W40678  15.180   6.148  15.553
40198W        W40679  17.323   5.763  14.878
40199W        W40680  16.618   7.284  17.090
40200W        W40681  16.290   3.716  15.407
40201W        W40682  17.003   4.585  16.266
40202W        W40683  14.689   6.172  16.598
40203W        W40684  15.942   4.134  15.239
40204W        W40685  16.740   4.599  15.802
40205W        W40686  16.945   6.009  16.924
40206W        W40687  15.099   6.614  17.359
40207W        W40688  15.541   4.394  15.096
40208W        W40689  17.058   4.536  15.421
40209W        W40690  17.016   6.644  17.658
40210W        W40691  15.701   5.236  16.257
40211W        W40692  15.356   6.934  17.122
40212W        W40693  16.959   5.985  16.407
40213W        W40694  15.395   5.634  15.649
40214W        W40695  15.766   6.641  17.044
40215W        W40696  16.144   4.060  16.085
40216W        W40697  14.755   6.044  15.015
40217W        W40698  16.274   4.995  14.885
40218W        W40699  14.920   5.544  15.904
40219W        W40700  16.210   4.186  17.368
40220W        W40701  15.334   7.246  16.657
40221W        W40702  16.723   5.135  16.044
40222W        W40703  16.490   3.747  15.934
40223W        W40704  15.549   6.731  15.771
40224W        W40705  16.048   4.472  16.996
40225W        W40706  15.748   3.841  16.465
40226W        W40707  14.811   6.663  15.013
40227W        W40708  16.627   6.027  15.731
40228W        W40709  15.502   6.822  17.610
40229W        W40710  14.979   5.645  15.306
40230W        W40711  14.864   4.188  16.305
40231W        W40712  16.412   6.153  16.362
40232W        W40713  17.328   5.213  17.309
40233W        W40714  17.205   4.599  14.881
40234W        W40715  16.383   6.755  16.360
40235W        W40716  15.795   6.859  15.271
40236W        W40717  17.077   3.762  14.701
40237W        W40718  14.877   7.022  16.442
40238W        W40719  14.788   4.910  15.409
40239W        W40720  15.479   4.899  15.134
40240W        W40721  15.585   5.507  16.660
40241W        W40722  17.059   3.793  15.780
40242W        W40723  16.190   7.224  16.283
40243W        W40724  17.404   6.686  17.220
40244W        W40725  16.988   6.835  16.331
40245W        W40726  17.007   5.815  15.925
40246W        W40727  16.469   4.040  14.996
40247W        W40728  15.838   5.303  14.881
40248W        W40729  16.696   5.810  14.748
40249W        W40730  17.632   6.010  17.496
40250W        W40731  17.286   6.711  14.963
40251W        W40732  15.721   4.970  17.110
40252W        W40733  14.757   4.886  17.541
40253W        W40734  16.517   5.363  17.267
40254W        W40735  14.874   6.121  15.924
40255W        W40736  15.021   5.418  16.814
40256W        W40737  17.338   5.704  17.164
40257W        W40738  17.110   7.084  17.975
40258W        W40739  17.006   4.823  17.528
40259W        W40740  17.283   6.877  15.933
40260W        W40741  16.285   6.597  17.256
40261W        W40742  15.770   6.952  16.525
40262W        W40743  17.575   6.123  16.944
40263W        W40744  15.230   6.148  16.420
40264W        W40745  17.576   5.907  16.065
40265W        W40746  17.217   6.973  16.816
40266W        W40747  15.195   6.702  16.686
40267W        W40748  16.667   6.920  15.407
40268W        W40749  16.101   6.413  15.422
40269W        W40750  15.322   5.153  14.681
40270W        W40751  14.661  10.884   3.359
40271W        W40752  15.037   9.777   2.882
40272W        W40753  17.742   9.507   0.652
40273W        W40754  15.790  10.583   0.205
40274W        W40755  15.873   8.735   1.188
40275W        W40756  15.388   8.583   1.352
40276W        W40757  16.379   9.398   0.786
40277W        W40758  16.054  10.490   3.141
40278W        W40759  14.703   8.051   3.104
40279W        W40760  15.465   7.331   2.906
40280W        W40761  17.159   7.719   1.793
40281W        W40762  16.808   8.590   0.363
40282W        W40763  14.744   7.816   2.579
40283W        W40764  14.843  10.435   3.600
40284W        W40765  16.365   9.825   0.332
40285W        W40766  14.797   8.608   2.025
40286W        W40767  15.690   8.499   3.262
40287W        W40768  16.767  10.073   2.016
40288W        W40769  15.267   9.507   2.248
40289W        W40770  14.626   9.035   1.819
40290W        W40771  15.662   9.007   3.011
40291W        W40772  15.549  10.234   1.710
40292W        W40773  16.670   9.923   2.844
40293W        W40774  15.890   8.563   2.069
40294W        W40775  16.182   9.347   1.712
40295W        W40776  17.179  10.120   3.560
40296W        W40777  16.258   9.440   3.570
40297W        W40778  16.239   9.156   3.048
40298W        W40779  14.648   8.547   3.570
40299W        W40780  17.480  10.082   3.169
40300W        W40781  15.061   7.664   1.167
40301W        W40782  15.588   9.922   2.166
40302W        W40783  17.464   8.105   2.023
40303W        W40784  16.181  10.566   2.177
40304W        W40785  15.084  10.818   0.369
40305W        W40786  15.477  10.864   1.045
40306W        W40787  15.274   7.618   2.471
40307W        W40788  17.302   9.058   1.205
40308W        W40789  17.268   8.746   0.232
40309W        W40790  16.476   9.890   2.372
40310W        W40791  16.282   8.220   1.571
40311W        W40792  16.882  10.307   2.565
40312W        W40793  16.655   7.756   1.003
40313W        W40794  15.312  10.450   0.686
40314W        W40795  14.683   7.949   1.285
40315W        W40796  17.469   8.556   1.759
40316W        W40797  14.927  10.173   1.674
40317W        W40798  16.268  10.523   0.544
40318W        W40799  17.660   8.549   0.008
40319W        W40800  14.683  10.307   2.172
40320W        W40801  15.474   9.879   2.652
40321W        W40802  15.847   9.239   1.271
40322W        W40803  15.869   7.644   2.364
40323W        W40804  15.317   9.278   0.129
40324W        W40805  14.972   8.311   0.308
40325W        W40806  15.034  10.267   1.102
40326W        W40807  16.165   9.750   1.350
40327W        W40808  17.497  10.609   3.064
40328W        W40809  16.423   8.251   0.748
40329W        W40810  17.483   8.502   3.118
40330W        W40811  16.823   9.450   2.736
40331W        W40812  14.589   9.001   0.942
40332W        W40813  15.700   9.416   2.515
40333W        W40814  16.904   8.680   0.893
40334W        W40815  16.781   9.170   0.997
40335W        W40816  15.124   8.590   2.471
40336W        W40817  15.109   8.466   3.393
40337W        W40818  14.999   7.383   1.552
40338W        W40819  16.767   7.730   2.113
40339W        W40820  16.415   7.915   3.276
40340W        W40821  16.770   8.064   0.454
40341W        W40822  16.920   7.538   3.247
40342W        W40823  17.369   8.006   2.965
40343W        W40824  17.169   7.944   1.235
40344W        W40825  17.562   9.078   3.639
40345W        W40826  15.302  10.654   1.625
40346W        W40827  15.960   8.371   0.611
40347W        W40828  15.529   7.655   3.275
40348W        W40829  17.581   8.139   0.956
40349W        W40830  15.691  10.838   3.372
40350W        W40831  15.617   7.374   0.607
40351W        W40832  14.995   9.360   1.789
40352W        W40833  16.912   7.947   0.019
40353W        W40834  16.530   8.685   3.043
40354W        W40835  16.623  10.024   0.746
40355W        W40836  17.023   9.318   3.486
40356W        W40837  16.697   7.295   1.795
40357W        W40838  15.309   8.198   1.858
40358W        W40839  14.863   9.398   2.632
40359W        W40840  16.722  10.591   1.338
40360W        W40841  16.553  10.535   2.977
40361W        W40842  16.331   9.077   1.243
40362W        W40843  16.332   9.423   2.578
40363W        W40844  16.549   8.309   2.023
40364W        W40845  17.401   8.607   0.861
40365W        W40846  17.688   8.340   0.503
40366W        W40847  17.497  10.380   0.892
40367W        W40848  17.331   9.983   1.688
40368W        W40849  17.227   9.062   0.666
40369W        W40850  16.660   9.272   1.652
40370W        W40851  17.541   9.060   1.719
40371W        W40852  14.916   8.075   2.143
40372W        W40853  17.694   9.127   2.970
40373W        W40854  15.975  10.189   1.518
40374W        W40855  16.982  10.722   2.842
40375W        W40856  16.976   8.052   2.606
40376W        W40857  16.183  10.760   2.667
40377W        W40858  17.671   9.033   2.434
40378W        W40859  14.654   8.354   2.472
40379W        W40860  17.514   8.149   1.490
40380W        W40861  16.810   9.999   1.485
40381W        W40862  16.066  10.590   1.098
40382W        W40863  15.181   7.770   0.356
40383W        W40864  16.285   7.424   2.166
40384W        W40865  15.313  10.544   0.014
40385W        W40866  15.687   9.010   0.765
40386W        W40867  16.341   9.639   3.078
40387W        W40868  16.171   7.997   1.068
40388W        W40869  17.527   7.594   1.496
40389W        W40870  17.247  10.876   1.824
40390W        W40871  16.659  10.524   2.164
40391W        W40872  16.055   9.561   2.125
40392W        W40873  15.519   7.787   1.020
40393W        W40874  16.041  10.084   1.980
40394W        W40875  15.524   8.015   0.045
40395W        W40876  16.325   8.624   2.439
40396W        W40877  14.593   9.333   2.194
40397W        W40878  16.297   9.151   0.352
40398W        W40879  15.565   7.466   0.122
40399W        W40880  16.303   8.547   1.173
40400W        W40881  17.273   7.523   2.872
40401W        W40882  16.665   9.317   3.198
40402W        W40883  17.282   9.347   3.091
40403W        W40884  16.566   7.487   3.596
40404W        W40885  15.788   8.103   1.989
40405W        W40886  15.214   8.059   1.387
40406W        W40887  15.000  10.771   1.063
40407W        W40888  16.332  10.101   3.188
40408W        W40889  15.367   9.586   0.547
40409W        W40890  17.047   8.971   1.768
40410W        W40891  17.327   8.770   2.167
40411W        W40892  16.532   9.444   2.101
40412W        W40893  17.002   9.818   0.233
40413W        W40894  16.674   7.839   1.561
40414W        W40895  14.647  10.706   2.860
40415W        W40896  15.064   9.932   2.392
40416W        W40897  14.631  10.778   0.624
40417W        W40898  16.530   8.048   2.430
40418W        W40899  15.893  10.071   0.279
40419W        W40900  17.798  10.453   0.465
40420W        W40901  16.773   9.106   0.479
40421W        W40902  15.616   8.297   0.996
40422W        W40903  16.448   8.207   0.048
40423W        W40904  17.032   9.772   3.226
40424W        W40905  17.385   7.678   0.843
40425W        W40906  14.715   7.526   0.291
40426W        W40907  16.001   9.845   2.581
40427W        W40908  15.800   9.761   1.673
40428W        W40909  15.542   9.713   0.071
40429W        W40910  14.783   9.954   0.839
40430W        W40911  15.287   9.024   3.281
40431W        W40912  15.991   7.584   3.467
40432W        W40913  16.700   7.726   2.823
40433W        W40914  15.895   7.494   1.104
40434W        W40915  16.954   7.571   0.609
40435W        W40916  14.899   7.503   2.186
40436W        W40917  14.947   8.466   1.556
40437W        W40918  17.636   7.574   1.962
40438W        W40919  15.058   8.072   0.776
40439W        W40920  17.629   7.760   2.392
40440W        W40921  15.317   7.721   1.896
40441W        W40922  16.431   8.293   2.836
40442W        W40923  14.579   7.983   0.314
40443W        W40924  15.365   9.372   2.875
40444W        W40925  16.723   8.770   2.054
40445W        W40926  16.590  10.849   0.350
40446W        W40927  14.736   9.356   0.047
40447W        W40928  15.471   9.767   3.173
40448W        W40929  14.992   8.934   2.804
40449W        W40930  15.983   9.039   2.598
40450W        W40931  17.751   7.398   2.860
40451W        W40932  17.000   9.540   0.636
40452W        W40933  17.474  10.840   0.331
40453W        W40934  16.651   8.830   3.473
40454W        W40935  14.981   9.797   3.513
40455W        W40936  16.213  10.777   3.563
40456W        W40937  16.068   7.406   0.290
40457W        W40938  17.607  10.005   0.233
40458W        W40939  15.376   8.098   3.119
40459W        W40940  15.810  10.092   2.981
40460W        W40941  17.147  10.742   0.747
40461W        W40942  17.386   9.361   2.114
40462W        W40943  15.636   7.777   2.781
40463W        W40944  16.105   8.846   3.538
40464W        W40945  15.608  10.025   0.732
40465W        W40946  17.363   9.523   0.996
40466W        W40947  15.131   8.149   2.720
40467W        W40948  16.460  10.211   1.184
40468W        W40949  16.432   7.404   3.084
40469W        W40950  17.212  10.109   2.163
40470W        W40951  17.515  10.453   1.871
40471W        W40952  16.734  10.255   0.299
40472W        W40953  14.744  10.147   3.141
40473W        W40954  15.487   8.139   2.379
40474W        W40955  15.457   7.487   1.489
40475W        W40956  17.078   8.329   2.181
40476W        W40957  15.876   9.500   0.381
40477W        W40958  15.201  10.200   3.303
40478W        W40959  17.588  10.882   1.100
40479W        W40960  15.687   7.902   1.545
40480W        W40961  15.456   9.395   1.635
40481W        W40962  15.769  10.806   2.385
40482W        W40963  16.995   9.090   2.350
40483W        W40964  14.844   8.888   0.265
40484W        W40965  15.954   7.389   2.984
40485W        W40966  17.660  10.191   1.442
40486W        W40967  17.689   8.747   1.347
40487W        W40968  15.806   8.420   1.563
40488W        W40969  16.051   8.682   2.887
40489W        W40970  17.162   9.835   2.750
40490W        W40971  15.812   8.289   2.862
40491W        W40972  15.791  10.755   1.478
40492W        W40973  15.220  10.075   0.242
40493W        W40974  17.737   9.833   1.052
40494W        W40975  15.341   8.625   2.938
40495W        W40976  15.859   9.612   0.890
40496W        W40977  16.958   8.994   2.971
40497W        W40978  16.849   8.622   2.515
40498W        W40979  15.409   8.994   2.544
40499W        W40980  17.619  10.882   2.373
40500W        W40981  17.410   7.516   3.367
40501W        W40982  15.074   7.666   2.954
40502W        W40983  15.413   8.689   2.007
40503W        W40984  15.782   8.503   0.129
40504W        W40985  14.585  10.262   2.674
40505W        W40986  16.170   8.971   2.117
40506W        W40987  15.993   7.996   0.222
40507W        W40988  15.128   8.812   1.003
40508W        W40989  14.899  10.664   2.440
40509W        W40990  17.694   8.890   0.548
40510W        W40991  17.225  10.015   1.197
40511W        W40992  14.823   8.939   3.374
40512W        W40993  17.309   9.878   0.681
40513W        W40994  16.211   8.936   0.766
40514W        W40995  17.398   7.740   0.289
40515W        W40996  17.463   8.347   2.475
40516W        W40997  15.172   8.940   1.682
40517W        W40998  15.466   9.879   1.331
40518W        W40999  17.229   8.499   1.296
40519W        W41000  16.252   7.878   1.992
40520W        W41001  14.671  10.606   1.440
40521W        W41002  15.180   9.793   0.976
40522W        W41003  15.095   7.410   3.529
40523W        W41004  16.214  10.263   3.631
40524W        W41005  17.323   9.408   0.301
40525W        W41006  16.618  10.929   2.513
40526W        W41007  17.475   9.651   3.550
40527W        W41008  16.290   7.361   0.830
40528W        W41009  17.003   8.230   1.689
40529W        W41010  14.689   9.817   2.021
40530W        W41011  15.942   7.779   0.662
40531W        W41012  15.746   9.263   3.511
40532W        W41013  16.740   8.244   1.225
40533W        W41014  16.945   9.654   2.347
40534W        W41015  15.099  10.259   2.782
40535W        W41016  15.690  10.242   3.505
40536W        W41017  15.541   8.039   0.519
40537W        W41018  17.058   8.181   0.844
40538W        W41019  17.016  10.289   3.081
40539W        W41020  15.701   8.881   1.680
40540W        W41021  15.356  10.579   2.545
40541W        W41022  14.964   9.368   3.142
40542W        W41023  16.959   9.630   1.830
40543W        W41024  15.395   9.279   1.072
40544W        W41025  15.766  10.286   2.467
40545W        W41026  16.144   7.705   1.508
40546W        W41027  14.755   9.689   0.438
40547W        W41028  16.274   8.640   0.308
40548W        W41029  14.920   9.189   1.327
40549W        W41030  16.210   7.831   2.791
40550W        W41031  16.629  10.543   3.469
40551W        W41032  17.595  10.435   3.602
40552W        W41033  15.334  10.891   2.080
40553W        W41034  16.723   8.780   1.467
40554W        W41035  16.490   7.392   1.357
40555W        W41036  15.549  10.376   1.194
40556W        W41037  16.048   8.117   2.419
40557W        W41038  15.748   7.486   1.888
40558W        W41039  14.811  10.308   0.436
40559W        W41040  16.627   9.672   1.154
40560W        W41041  15.502  10.467   3.033
40561W        W41042  14.979   9.290   0.729
40562W        W41043  14.864   7.833   1.728
40563W        W41044  16.412   9.798   1.785
40564W        W41045  14.664   7.652   0.805
40565W        W41046  17.328   8.858   2.732
40566W        W41047  17.205   8.244   0.304
40567W        W41048  16.383  10.400   1.783
40568W        W41049  15.795  10.504   0.694
40569W        W41050  14.877  10.667   1.865
40570W        W41051  17.074   8.425   3.500
40571W        W41052  15.057   7.955   3.499
40572W        W41053  14.788   8.555   0.832
40573W        W41054  15.479   8.544   0.557
40574W        W41055  17.242   8.871   3.374
40575W        W41056  15.585   9.152   2.083
40576W        W41057  17.059   7.438   1.203
40577W        W41058  16.190  10.869   1.706
40578W        W41059  17.404  10.331   2.643
40579W        W41060  16.988  10.480   1.754
40580W        W41061  17.007   9.460   1.348
40581W        W41062  16.469   7.685   0.419
40582W        W41063  16.696   9.455   0.171
40583W        W41064  17.632   9.655   2.919
40584W        W41065  17.286  10.356   0.386
40585W        W41066  15.901   8.031   3.292
40586W        W41067  15.721   8.615   2.533
40587W        W41068  16.913   8.060   3.187
40588W        W41069  14.757   8.531   2.964
40589W        W41070  16.517   9.008   2.690
40590W        W41071  14.874   9.766   1.347
40591W        W41072  15.021   9.063   2.237
40592W        W41073  17.338   9.349   2.587
40593W        W41074  17.110  10.729   3.398
40594W        W41075  17.006   8.468   2.951
40595W        W41076  17.283  10.522   1.356
40596W        W41077  16.285  10.242   2.679
40597W        W41078  15.770  10.597   1.948
40598W        W41079  17.575   9.768   2.367
40599W        W41080  16.625   9.840   3.504
40600W        W41081  15.230   9.793   1.843
40601W        W41082  17.576   9.552   1.488
40602W        W41083  17.217  10.618   2.239
40603W        W41084  15.195  10.347   2.109
40604W        W41085  16.216   8.399   3.319
40605W        W41086  16.667  10.565   0.830
40606W        W41087  15.975   9.820   3.468
40607W        W41088  16.101  10.058   0.845
40608W        W41089  15.322   8.798   0.104
40609W        W41090  14.661  10.884   7.003
40610W        W41091  15.037   9.777   6.526
40611W        W41092  17.742   9.507   4.296
40612W        W41093  15.790  10.583   3.849
40613W        W41094  15.873   8.735   4.832
40614W        W41095  15.388   8.583   4.996
40615W        W41096  16.379   9.398   4.430
40616W        W41097  16.054  10.490   6.785
40617W        W41098  14.703   8.051   6.748
40618W        W41099  15.465   7.331   6.550
40619W        W41100  17.159   7.719   5.437
40620W        W41101  16.808   8.590   4.007
40621W        W41102  17.378   8.024   7.098
40622W        W41103  14.744   7.816   6.223
40623W        W41104  14.843  10.435   7.244
40624W        W41105  16.365   9.825   3.976
40625W        W41106  14.797   8.608   5.669
40626W        W41107  15.690   8.499   6.906
40627W        W41108  16.221   8.734   5.291
40628W        W41109  16.767  10.073   5.660
40629W        W41110  15.267   9.507   5.892
40630W        W41111  14.626   9.035   5.463
40631W        W41112  15.662   9.007   6.655
40632W        W41113  15.549  10.234   5.354
40633W        W41114  16.670   9.923   6.488
40634W        W41115  15.890   8.563   5.713
40635W        W41116  16.182   9.347   5.356
40636W        W41117  17.179  10.120   7.204
40637W        W41118  16.258   9.440   7.214
40638W        W41119  16.239   9.156   6.692
40639W        W41120  14.648   8.547   7.214
40640W        W41121  17.480  10.082   6.813
40641W        W41122  15.061   7.664   4.811
40642W        W41123  15.588   9.922   5.810
40643W        W41124  17.464   8.105   5.667
40644W        W41125  16.181  10.566   5.821
40645W        W41126  15.084  10.818   4.013
40646W        W41127  15.477  10.864   4.689
40647W        W41128  15.274   7.618   6.115
40648W        W41129  17.302   9.058   4.849
40649W        W41130  17.268   8.746   3.876
40650W        W41131  16.476   9.890   6.016
40651W        W41132  16.282   8.220   5.215
40652W        W41133  16.882  10.307   6.209
40653W        W41134  16.655   7.756   4.647
40654W        W41135  15.312  10.450   4.330
40655W        W41136  14.683   7.949   4.929
40656W        W41137  17.469   8.556   5.403
40657W        W41138  14.927  10.173   5.318
40658W        W41139  16.268  10.523   4.188
40659W        W41140  14.683  10.307   5.816
40660W        W41141  15.474   9.879   6.296
40661W        W41142  15.847   9.239   4.915
40662W        W41143  15.869   7.644   6.008
40663W        W41144  15.317   9.278   3.773
40664W        W41145  14.972   8.311   3.952
40665W        W41146  15.034  10.267   4.746
40666W        W41147  16.165   9.750   4.994
40667W        W41148  17.497  10.609   6.708
40668W        W41149  16.423   8.251   4.392
40669W        W41150  17.483   8.502   6.762
40670W        W41151  16.823   9.450   6.380
40671W        W41152  14.589   9.001   4.586
40672W        W41153  15.700   9.416   6.159
40673W        W41154  16.904   8.680   4.537
40674W        W41155  16.781   9.170   4.641
40675W        W41156  15.124   8.590   6.115
40676W        W41157  15.109   8.466   7.037
40677W        W41158  14.999   7.383   5.196
40678W        W41159  16.767   7.730   5.757
40679W        W41160  16.415   7.915   6.920
40680W        W41161  16.770   8.064   4.098
40681W        W41162  16.920   7.538   6.891
40682W        W41163  17.939   9.839   7.013
40683W        W41164  17.369   8.006   6.609
40684W        W41165  17.169   7.944   4.879
40685W        W41166  17.562   9.078   7.283
40686W        W41167  15.302  10.654   5.269
40687W        W41168  15.960   8.371   4.255
40688W        W41169  15.529   7.655   6.919
40689W        W41170  17.581   8.139   4.600
40690W        W41171  15.691  10.838   7.016
40691W        W41172  15.617   7.374   4.251
40692W        W41173  14.995   9.360   5.433
40693W        W41174  16.912   7.947   3.663
40694W        W41175  16.530   8.685   6.687
40695W        W41176  16.623  10.024   4.390
40696W        W41177  17.023   9.318   7.130
40697W        W41178  16.697   7.295   5.439
40698W        W41179  15.309   8.198   5.502
40699W        W41180  14.863   9.398   6.276
40700W        W41181  16.722  10.591   4.982
40701W        W41182  16.553  10.535   6.621
40702W        W41183  16.331   9.077   4.887
40703W        W41184  16.332   9.423   6.222
40704W        W41185  16.549   8.309   5.667
40705W        W41186  17.401   8.607   4.505
40706W        W41187  17.688   8.340   4.147
40707W        W41188  17.497  10.380   4.536
40708W        W41189  17.331   9.983   5.332
40709W        W41190  17.227   9.062   4.310
40710W        W41191  16.660   9.272   5.296
40711W        W41192  17.541   9.060   5.363
40712W        W41193  14.916   8.075   5.787
40713W        W41194  17.694   9.127   6.614
40714W        W41195  15.975  10.189   5.162
40715W        W41196  16.982  10.722   6.486
40716W        W41197  16.976   8.052   6.250
40717W        W41198  16.183  10.760   6.311
40718W        W41199  17.671   9.033   6.078
40719W        W41200  14.654   8.354   6.116
40720W        W41201  17.514   8.149   5.134
40721W        W41202  16.810   9.999   5.129
40722W        W41203  16.066  10.590   4.742
40723W        W41204  15.181   7.770   4.000
40724W        W41205  16.285   7.424   5.810
40725W        W41206  15.313  10.544   3.658
40726W        W41207  15.687   9.010   4.409
40727W        W41208  16.341   9.639   6.722
40728W        W41209  16.171   7.997   4.712
40729W        W41210  17.527   7.594   5.140
40730W        W41211  17.247  10.876   5.468
40731W        W41212  16.659  10.524   5.808
40732W        W41213  16.055   9.561   5.769
40733W        W41214  15.519   7.787   4.664
40734W        W41215  16.041  10.084   5.624
40735W        W41216  15.524   8.015   3.689
40736W        W41217  16.325   8.624   6.083
40737W        W41218  17.173   7.490   5.953
40738W        W41219  14.593   9.333   5.838
40739W        W41220  16.297   9.151   3.996
40740W        W41221  15.565   7.466   3.766
40741W        W41222  16.303   8.547   4.817
40742W        W41223  17.273   7.523   6.516
40743W        W41224  15.861   9.535   6.625
40744W        W41225  16.665   9.317   6.842
40745W        W41226  17.282   9.347   6.735
40746W        W41227  16.566   7.487   7.240
40747W        W41228  15.788   8.103   5.633
40748W        W41229  15.214   8.059   5.031
40749W        W41230  15.000  10.771   4.707
40750W        W41231  16.332  10.101   6.832
40751W        W41232  15.367   9.586   4.191
40752W        W41233  17.047   8.971   5.412
40753W        W41234  17.327   8.770   5.811
40754W        W41235  16.532   9.444   5.745
40755W        W41236  17.002   9.818   3.877
40756W        W41237  16.674   7.839   5.205
40757W        W41238  14.647  10.706   6.504
40758W        W41239  15.064   9.932   6.036
40759W        W41240  14.631  10.778   4.268
40760W        W41241  16.530   8.048   6.074
40761W        W41242  15.893  10.071   3.923
40762W        W41243  17.798  10.453   4.109
40763W        W41244  16.773   9.106   4.123
40764W        W41245  15.616   8.297   4.640
40765W        W41246  16.448   8.207   3.692
40766W        W41247  17.032   9.772   6.870
40767W        W41248  17.385   7.678   4.487
40768W        W41249  14.715   7.526   3.935
40769W        W41250  16.001   9.845   6.225
40770W        W41251  15.800   9.761   5.317
40771W        W41252  15.542   9.713   3.715
40772W        W41253  14.783   9.954   4.483
40773W        W41254  15.287   9.024   6.925
40774W        W41255  15.991   7.584   7.111
40775W        W41256  16.700   7.726   6.467
40776W        W41257  15.895   7.494   4.748
40777W        W41258  16.954   7.571   4.253
40778W        W41259  14.899   7.503   5.830
40779W        W41260  14.947   8.466   5.200
40780W        W41261  17.636   7.574   5.606
40781W        W41262  15.058   8.072   4.420
40782W        W41263  17.629   7.760   6.036
40783W        W41264  15.317   7.721   5.540
40784W        W41265  16.431   8.293   6.480
40785W        W41266  14.579   7.983   3.958
40786W        W41267  15.365   9.372   6.519
40787W        W41268  16.723   8.770   5.698
40788W        W41269  16.590  10.849   3.994
40789W        W41270  14.736   9.356   3.691
40790W        W41271  15.471   9.767   6.817
40791W        W41272  14.992   8.934   6.448
40792W        W41273  15.983   9.039   6.242
40793W        W41274  17.751   7.398   6.504
40794W        W41275  17.000   9.540   4.280
40795W        W41276  17.474  10.840   3.975
40796W        W41277  16.651   8.830   7.117
40797W        W41278  14.981   9.797   7.157
40798W        W41279  16.213  10.777   7.207
40799W        W41280  16.068   7.406   3.934
40800W        W41281  17.607  10.005   3.877
40801W        W41282  15.376   8.098   6.763
40802W        W41283  15.810  10.092   6.625
40803W        W41284  17.147  10.742   4.391
40804W        W41285  17.386   9.361   5.758
40805W        W41286  15.636   7.777   6.425
40806W        W41287  16.105   8.846   7.182
40807W        W41288  15.608  10.025   4.376
40808W        W41289  17.363   9.523   4.640
40809W        W41290  15.131   8.149   6.364
40810W        W41291  16.460  10.211   4.828
40811W        W41292  16.432   7.404   6.728
40812W        W41293  17.212  10.109   5.807
40813W        W41294  17.515  10.453   5.515
40814W        W41295  16.734  10.255   3.943
40815W        W41296  14.744  10.147   6.785
40816W        W41297  15.487   8.139   6.023
40817W        W41298  15.457   7.487   5.133
40818W        W41299  17.078   8.329   5.825
40819W        W41300  15.876   9.500   4.025
40820W        W41301  15.201  10.200   6.947
40821W        W41302  17.588  10.882   4.744
40822W        W41303  15.687   7.902   5.189
40823W        W41304  15.456   9.395   5.279
40824W        W41305  15.769  10.806   6.029
40825W        W41306  16.995   9.090   5.994
40826W        W41307  14.844   8.888   3.909
40827W        W41308  15.954   7.389   6.628
40828W        W41309  17.660  10.191   5.086
40829W        W41310  17.689   8.747   4.991
40830W        W41311  15.806   8.420   5.207
40831W        W41312  16.051   8.682   6.531
40832W        W41313  17.162   9.835   6.394
40833W        W41314  15.812   8.289   6.506
40834W        W41315  15.108  10.714   6.756
40835W        W41316  15.220  10.075   3.886
40836W        W41317  17.737   9.833   4.696
40837W        W41318  15.341   8.625   6.582
40838W        W41319  15.859   9.612   4.534
40839W        W41320  16.958   8.994   6.615
40840W        W41321  16.849   8.622   6.159
40841W        W41322  15.409   8.994   6.188
40842W        W41323  17.619  10.882   6.017
40843W        W41324  17.410   7.516   7.011
40844W        W41325  15.074   7.666   6.598
40845W        W41326  15.413   8.689   5.651
40846W        W41327  15.782   8.503   3.773
40847W        W41328  14.585  10.262   6.318
40848W        W41329  16.170   8.971   5.761
40849W        W41330  15.993   7.996   3.866
40850W        W41331  15.128   8.812   4.647
40851W        W41332  14.899  10.664   6.084
40852W        W41333  17.694   8.890   4.192
40853W        W41334  17.225  10.015   4.841
40854W        W41335  14.823   8.939   7.018
40855W        W41336  17.309   9.878   4.325
40856W        W41337  16.211   8.936   4.410
40857W        W41338  17.398   7.740   3.933
40858W        W41339  17.463   8.347   6.119
40859W        W41340  15.172   8.940   5.326
40860W        W41341  15.466   9.879   4.975
40861W        W41342  17.229   8.499   4.940
40862W        W41343  16.252   7.878   5.636
40863W        W41344  14.671  10.606   5.084
40864W        W41345  15.180   9.793   4.620
40865W        W41346  15.095   7.410   7.173
40866W        W41347  16.214  10.263   7.275
40867W        W41348  17.323   9.408   3.945
40868W        W41349  16.618  10.929   6.157
40869W        W41350  17.475   9.651   7.194
40870W        W41351  16.290   7.361   4.474
40871W        W41352  17.003   8.230   5.333
40872W        W41353  14.689   9.817   5.665
40873W        W41354  15.746   9.263   7.155
40874W        W41355  16.740   8.244   4.869
40875W        W41356  16.945   9.654   5.991
40876W        W41357  15.099  10.259   6.426
40877W        W41358  15.690  10.242   7.149
40878W        W41359  15.541   8.039   4.163
40879W        W41360  17.058   8.181   4.488
40880W        W41361  17.016  10.289   6.725
40881W        W41362  15.701   8.881   5.324
40882W        W41363  15.356  10.579   6.189
40883W        W41364  14.964   9.368   6.786
40884W        W41365  16.959   9.630   5.474
40885W        W41366  15.395   9.279   4.716
40886W        W41367  15.766  10.286   6.111
40887W        W41368  16.144   7.705   5.152
40888W        W41369  14.755   9.689   4.082
40889W        W41370  16.274   8.640   3.952
40890W        W41371  14.920   9.189   4.971
40891W        W41372  16.210   7.831   6.435
40892W        W41373  16.629  10.543   7.113
40893W        W41374  17.595  10.435   7.246
40894W        W41375  15.334  10.891   5.724
40895W        W41376  16.723   8.780   5.111
40896W        W41377  16.490   7.392   5.001
40897W        W41378  15.549  10.376   4.838
40898W        W41379  16.048   8.117   6.063
40899W        W41380  15.748   7.486   5.532
40900W        W41381  14.811  10.308   4.080
40901W        W41382  16.627   9.672   4.798
40902W        W41383  15.502  10.467   6.677
40903W        W41384  14.979   9.290   4.373
40904W        W41385  14.864   7.833   5.372
40905W        W41386  16.412   9.798   5.429
40906W        W41387  14.664   7.652   4.449
40907W        W41388  17.328   8.858   6.376
40908W        W41389  17.205   8.244   3.948
40909W        W41390  16.383  10.400   5.427
40910W        W41391  15.795  10.504   4.338
40911W        W41392  17.077   7.407   3.768
40912W        W41393  14.877  10.667   5.509
40913W        W41394  17.074   8.425   7.144
40914W        W41395  15.057   7.955   7.143
40915W        W41396  14.788   8.555   4.476
40916W        W41397  15.479   8.544   4.201
40917W        W41398  17.242   8.871   7.018
40918W        W41399  15.585   9.152   5.727
40919W        W41400  17.059   7.438   4.847
40920W        W41401  16.190  10.869   5.350
40921W        W41402  17.404  10.331   6.287
40922W        W41403  16.988  10.480   5.398
40923W        W41404  17.007   9.460   4.992
40924W        W41405  16.469   7.685   4.063
40925W        W41406  16.696   9.455   3.815
40926W        W41407  17.632   9.655   6.563
40927W        W41408  17.286  10.356   4.030
40928W        W41409  15.901   8.031   6.936
40929W        W41410  15.721   8.615   6.177
40930W        W41411  16.913   8.060   6.831
40931W        W41412  14.757   8.531   6.608
40932W        W41413  16.517   9.008   6.334
40933W        W41414  14.874   9.766   4.991
40934W        W41415  15.021   9.063   5.881
40935W        W41416  17.338   9.349   6.231
40936W        W41417  17.110  10.729   7.042
40937W        W41418  17.006   8.468   6.595
40938W        W41419  17.283  10.522   5.000
40939W        W41420  16.285  10.242   6.323
40940W        W41421  15.770  10.597   5.592
40941W        W41422  17.575   9.768   6.011
40942W        W41423  16.625   9.840   7.148
40943W        W41424  15.230   9.793   5.487
40944W        W41425  17.576   9.552   5.132
40945W        W41426  17.217  10.618   5.883
40946W        W41427  15.195  10.347   5.753
40947W        W41428  16.216   8.399   6.963
40948W        W41429  16.667  10.565   4.474
40949W        W41430  15.975   9.820   7.112
40950W        W41431  16.101  10.058   4.489
40951W        W41432  15.322   8.798   3.748
40952W        W41433  14.661  10.884  10.648
40953W        W41434  15.037   9.777  10.171
40954W        W41435  17.742   9.507   7.941
40955W        W41436  15.790  10.583   7.494
40956W        W41437  15.873   8.735   8.477
40957W        W41438  15.388   8.583   8.641
40958W        W41439  16.379   9.398   8.075
40959W        W41440  16.054  10.490  10.430
40960W        W41441  14.703   8.051  10.393
40961W        W41442  15.465   7.331  10.195
40962W        W41443  17.159   7.719   9.082
40963W        W41444  16.808   8.590   7.652
40964W        W41445  17.378   8.024  10.743
40965W        W41446  14.744   7.816   9.868
40966W        W41447  14.843  10.435  10.889
40967W        W41448  16.365   9.825   7.621
40968W        W41449  14.797   8.608   9.314
40969W        W41450  15.690   8.499  10.551
40970W        W41451  16.221   8.734   8.936
40971W        W41452  16.767  10.073   9.305
40972W        W41453  15.267   9.507   9.537
40973W        W41454  14.626   9.035   9.108
40974W        W41455  15.662   9.007  10.300
40975W        W41456  15.549  10.234   8.999
40976W        W41457  16.670   9.923  10.133
40977W        W41458  15.890   8.563   9.358
40978W        W41459  16.182   9.347   9.001
40979W        W41460  17.179  10.120  10.849
40980W        W41461  16.258   9.440  10.859
40981W        W41462  16.239   9.156  10.337
40982W        W41463  14.648   8.547  10.859
40983W        W41464  17.480  10.082  10.458
40984W        W41465  15.061   7.664   8.456
40985W        W41466  15.588   9.922   9.455
40986W        W41467  17.464   8.105   9.312
40987W        W41468  16.181  10.566   9.466
40988W        W41469  15.084  10.818   7.658
40989W        W41470  15.477  10.864   8.334
40990W        W41471  15.274   7.618   9.760
40991W        W41472  17.302   9.058   8.494
40992W        W41473  17.268   8.746   7.521
40993W        W41474  16.282   8.220   8.860
40994W        W41475  16.882  10.307   9.854
40995W        W41476  16.655   7.756   8.292
40996W        W41477  15.312  10.450   7.975
40997W        W41478  14.683   7.949   8.574
40998W        W41479  17.469   8.556   9.048
40999W        W41480  14.927  10.173   8.963
41000W        W41481  16.268  10.523   7.833
41001W        W41482  14.683  10.307   9.461
41002W        W41483  15.474   9.879   9.941
41003W        W41484  15.847   9.239   8.560
41004W        W41485  15.869   7.644   9.653
41005W        W41486  15.317   9.278   7.418
41006W        W41487  14.972   8.311   7.597
41007W        W41488  15.034  10.267   8.391
41008W        W41489  16.165   9.750   8.639
41009W        W41490  17.497  10.609  10.353
41010W        W41491  16.423   8.251   8.037
41011W        W41492  17.483   8.502  10.407
41012W        W41493  16.823   9.450  10.025
41013W        W41494  14.589   9.001   8.231
41014W        W41495  15.700   9.416   9.804
41015W        W41496  16.904   8.680   8.182
41016W        W41497  16.781   9.170   8.286
41017W        W41498  15.124   8.590   9.760
41018W        W41499  15.109   8.466  10.682
41019W        W41500  14.999   7.383   8.841
41020W        W41501  16.767   7.730   9.402
41021W        W41502  16.415   7.915  10.565
41022W        W41503  16.770   8.064   7.743
41023W        W41504  16.920   7.538  10.536
41024W        W41505  17.939   9.839  10.658
41025W        W41506  17.369   8.006  10.254
41026W        W41507  17.169   7.944   8.524
41027W        W41508  17.562   9.078  10.928
41028W        W41509  15.302  10.654   8.914
41029W        W41510  15.960   8.371   7.900
41030W        W41511  15.529   7.655  10.564
41031W        W41512  17.581   8.139   8.245
41032W        W41513  15.691  10.838  10.661
41033W        W41514  15.617   7.374   7.896
41034W        W41515  14.995   9.360   9.078
41035W        W41516  16.912   7.947   7.308
41036W        W41517  16.530   8.685  10.332
41037W        W41518  16.623  10.024   8.035
41038W        W41519  17.023   9.318  10.775
41039W        W41520  16.697   7.295   9.084
41040W        W41521  15.309   8.198   9.147
41041W        W41522  14.863   9.398   9.921
41042W        W41523  16.722  10.591   8.627
41043W        W41524  16.553  10.535  10.266
41044W        W41525  16.331   9.077   8.532
41045W        W41526  16.332   9.423   9.867
41046W        W41527  16.549   8.309   9.312
41047W        W41528  17.401   8.607   8.150
41048W        W41529  17.688   8.340   7.792
41049W        W41530  17.497  10.380   8.181
41050W        W41531  17.331   9.983   8.977
41051W        W41532  17.227   9.062   7.955
41052W        W41533  16.660   9.272   8.941
41053W        W41534  17.541   9.060   9.008
41054W        W41535  14.916   8.075   9.432
41055W        W41536  17.694   9.127  10.259
41056W        W41537  15.975  10.189   8.807
41057W        W41538  16.982  10.722  10.131
41058W        W41539  16.976   8.052   9.895
41059W        W41540  16.183  10.760   9.956
41060W        W41541  17.671   9.033   9.723
41061W        W41542  14.654   8.354   9.761
41062W        W41543  17.514   8.149   8.779
41063W        W41544  16.810   9.999   8.774
41064W        W41545  16.066  10.590   8.387
41065W        W41546  15.181   7.770   7.645
41066W        W41547  16.285   7.424   9.455
41067W        W41548  15.313  10.544   7.303
41068W        W41549  15.687   9.010   8.054
41069W        W41550  16.341   9.639  10.367
41070W        W41551  16.171   7.997   8.357
41071W        W41552  17.527   7.594   8.785
41072W        W41553  17.247  10.876   9.113
41073W        W41554  16.659  10.524   9.453
41074W        W41555  16.055   9.561   9.414
41075W        W41556  15.519   7.787   8.309
41076W        W41557  16.041  10.084   9.269
41077W        W41558  15.524   8.015   7.334
41078W        W41559  16.325   8.624   9.728
41079W        W41560  17.173   7.490   9.598
41080W        W41561  14.593   9.333   9.483
41081W        W41562  16.297   9.151   7.641
41082W        W41563  15.565   7.466   7.411
41083W        W41564  16.303   8.547   8.462
41084W        W41565  17.273   7.523  10.161
41085W        W41566  15.861   9.535  10.270
41086W        W41567  16.665   9.317  10.487
41087W        W41568  17.282   9.347  10.380
41088W        W41569  16.566   7.487  10.885
41089W        W41570  15.788   8.103   9.278
41090W        W41571  15.214   8.059   8.676
41091W        W41572  15.000  10.771   8.352
41092W        W41573  16.332  10.101  10.477
41093W        W41574  15.367   9.586   7.836
41094W        W41575  17.047   8.971   9.057
41095W        W41576  17.327   8.770   9.456
41096W        W41577  16.532   9.444   9.390
41097W        W41578  17.002   9.818   7.522
41098W        W41579  16.674   7.839   8.850
41099W        W41580  14.647  10.706  10.149
41100W        W41581  15.064   9.932   9.681
41101W        W41582  14.631  10.778   7.913
41102W        W41583  16.530   8.048   9.719
41103W        W41584  15.893  10.071   7.568
41104W        W41585  17.798  10.453   7.754
41105W        W41586  16.773   9.106   7.768
41106W        W41587  15.616   8.297   8.285
41107W        W41588  16.448   8.207   7.337
41108W        W41589  17.032   9.772  10.515
41109W        W41590  17.385   7.678   8.132
41110W        W41591  16.001   9.845   9.870
41111W        W41592  15.800   9.761   8.962
41112W        W41593  15.542   9.713   7.360
41113W        W41594  14.783   9.954   8.128
41114W        W41595  15.287   9.024  10.570
41115W        W41596  15.991   7.584  10.756
41116W        W41597  16.700   7.726  10.112
41117W        W41598  15.895   7.494   8.393
41118W        W41599  16.954   7.571   7.898
41119W        W41600  14.899   7.503   9.475
41120W        W41601  14.947   8.466   8.845
41121W        W41602  17.636   7.574   9.251
41122W        W41603  15.058   8.072   8.065
41123W        W41604  17.629   7.760   9.681
41124W        W41605  15.317   7.721   9.185
41125W        W41606  16.431   8.293  10.125
41126W        W41607  14.579   7.983   7.603
41127W        W41608  15.365   9.372  10.164
41128W        W41609  16.723   8.770   9.343
41129W        W41610  16.590  10.849   7.639
41130W        W41611  14.736   9.356   7.336
41131W        W41612  15.471   9.767  10.462
41132W        W41613  14.992   8.934  10.093
41133W        W41614  15.983   9.039   9.887
41134W        W41615  17.751   7.398  10.149
41135W        W41616  17.000   9.540   7.925
41136W        W41617  17.474  10.840   7.620
41137W        W41618  16.651   8.830  10.762
41138W        W41619  14.981   9.797  10.802
41139W        W41620  16.213  10.777  10.852
41140W        W41621  16.068   7.406   7.579
41141W        W41622  17.607  10.005   7.522
41142W        W41623  15.376   8.098  10.408
41143W        W41624  15.810  10.092  10.270
41144W        W41625  17.147  10.742   8.036
41145W        W41626  17.386   9.361   9.403
41146W        W41627  15.636   7.777  10.070
41147W        W41628  15.608  10.025   8.021
41148W        W41629  17.363   9.523   8.285
41149W        W41630  15.131   8.149  10.009
41150W        W41631  16.460  10.211   8.473
41151W        W41632  16.432   7.404  10.373
41152W        W41633  17.212  10.109   9.452
41153W        W41634  17.515  10.453   9.160
41154W        W41635  16.734  10.255   7.588
41155W        W41636  14.744  10.147  10.430
41156W        W41637  15.487   8.139   9.668
41157W        W41638  15.457   7.487   8.778
41158W        W41639  17.078   8.329   9.470
41159W        W41640  15.876   9.500   7.670
41160W        W41641  15.201  10.200  10.592
41161W        W41642  17.588  10.882   8.389
41162W        W41643  15.687   7.902   8.834
41163W        W41644  15.456   9.395   8.924
41164W        W41645  16.995   9.090   9.639
41165W        W41646  14.844   8.888   7.554
41166W        W41647  15.954   7.389  10.273
41167W        W41648  17.660  10.191   8.731
41168W        W41649  17.689   8.747   8.636
41169W        W41650  15.806   8.420   8.852
41170W        W41651  16.051   8.682  10.176
41171W        W41652  17.162   9.835  10.039
41172W        W41653  15.812   8.289  10.151
41173W        W41654  15.791  10.755   8.767
41174W        W41655  15.108  10.714  10.401
41175W        W41656  15.220  10.075   7.531
41176W        W41657  17.737   9.833   8.341
41177W        W41658  15.341   8.625  10.227
41178W        W41659  16.958   8.994  10.260
41179W        W41660  16.849   8.622   9.804
41180W        W41661  15.409   8.994   9.833
41181W        W41662  17.619  10.882   9.662
41182W        W41663  17.410   7.516  10.656
41183W        W41664  15.074   7.666  10.243
41184W        W41665  15.413   8.689   9.296
41185W        W41666  15.782   8.503   7.418
41186W        W41667  14.585  10.262   9.963
41187W        W41668  16.170   8.971   9.406
41188W        W41669  15.993   7.996   7.511
41189W        W41670  15.128   8.812   8.292
41190W        W41671  14.899  10.664   9.729
41191W        W41672  17.694   8.890   7.837
41192W        W41673  17.225  10.015   8.486
41193W        W41674  14.823   8.939  10.663
41194W        W41675  17.309   9.878   7.970
41195W        W41676  16.211   8.936   8.055
41196W        W41677  17.398   7.740   7.578
41197W        W41678  17.463   8.347   9.764
41198W        W41679  15.172   8.940   8.971
41199W        W41680  15.466   9.879   8.620
41200W        W41681  17.229   8.499   8.585
41201W        W41682  16.252   7.878   9.281
41202W        W41683  14.671  10.606   8.729
41203W        W41684  15.180   9.793   8.265
41204W        W41685  15.095   7.410  10.818
41205W        W41686  16.214  10.263  10.920
41206W        W41687  17.323   9.408   7.590
41207W        W41688  16.618  10.929   9.802
41208W        W41689  17.475   9.651  10.839
41209W        W41690  16.290   7.361   8.119
41210W        W41691  17.003   8.230   8.978
41211W        W41692  14.689   9.817   9.310
41212W        W41693  15.942   7.779   7.951
41213W        W41694  15.746   9.263  10.800
41214W        W41695  16.740   8.244   8.514
41215W        W41696  16.945   9.654   9.636
41216W        W41697  15.099  10.259  10.071
41217W        W41698  15.690  10.242  10.794
41218W        W41699  15.541   8.039   7.808
41219W        W41700  17.058   8.181   8.133
41220W        W41701  17.016  10.289  10.370
41221W        W41702  15.701   8.881   8.969
41222W        W41703  15.356  10.579   9.834
41223W        W41704  14.964   9.368  10.431
41224W        W41705  16.959   9.630   9.119
41225W        W41706  15.395   9.279   8.361
41226W        W41707  15.766  10.286   9.756
41227W        W41708  16.144   7.705   8.797
41228W        W41709  14.755   9.689   7.727
41229W        W41710  16.274   8.640   7.597
41230W        W41711  14.920   9.189   8.616
41231W        W41712  16.210   7.831  10.080
41232W        W41713  16.629  10.543  10.758
41233W        W41714  17.595  10.435  10.891
41234W        W41715  15.334  10.891   9.369
41235W        W41716  16.723   8.780   8.756
41236W        W41717  16.490   7.392   8.646
41237W        W41718  15.549  10.376   8.483
41238W        W41719  16.048   8.117   9.708
41239W        W41720  15.748   7.486   9.177
41240W        W41721  14.811  10.308   7.725
41241W        W41722  16.627   9.672   8.443
41242W        W41723  15.502  10.467  10.322
41243W        W41724  14.979   9.290   8.018
41244W        W41725  14.864   7.833   9.017
41245W        W41726  16.412   9.798   9.074
41246W        W41727  14.664   7.652   8.094
41247W        W41728  17.328   8.858  10.021
41248W        W41729  17.205   8.244   7.593
41249W        W41730  16.383  10.400   9.072
41250W        W41731  15.795  10.504   7.983
41251W        W41732  17.077   7.407   7.413
41252W        W41733  14.877  10.667   9.154
41253W        W41734  17.074   8.425  10.789
41254W        W41735  15.057   7.955  10.788
41255W        W41736  14.788   8.555   8.121
41256W        W41737  15.479   8.544   7.846
41257W        W41738  17.242   8.871  10.663
41258W        W41739  15.585   9.152   9.372
41259W        W41740  17.059   7.438   8.492
41260W        W41741  16.190  10.869   8.995
41261W        W41742  16.988  10.480   9.043
41262W        W41743  17.007   9.460   8.637
41263W        W41744  16.469   7.685   7.708
41264W        W41745  15.838   8.948   7.593
41265W        W41746  16.696   9.455   7.460
41266W        W41747  17.632   9.655  10.208
41267W        W41748  17.286  10.356   7.675
41268W        W41749  15.901   8.031  10.581
41269W        W41750  15.721   8.615   9.822
41270W        W41751  16.913   8.060  10.476
41271W        W41752  14.757   8.531  10.253
41272W        W41753  16.517   9.008   9.979
41273W        W41754  14.874   9.766   8.636
41274W        W41755  15.021   9.063   9.526
41275W        W41756  17.338   9.349   9.876
41276W        W41757  17.110  10.729  10.687
41277W        W41758  17.006   8.468  10.240
41278W        W41759  17.283  10.522   8.645
41279W        W41760  16.285  10.242   9.968
41280W        W41761  15.770  10.597   9.237
41281W        W41762  17.575   9.768   9.656
41282W        W41763  16.625   9.840  10.793
41283W        W41764  15.230   9.793   9.132
41284W        W41765  17.576   9.552   8.777
41285W        W41766  17.217  10.618   9.528
41286W        W41767  15.195  10.347   9.398
41287W        W41768  16.216   8.399  10.608
41288W        W41769  16.667  10.565   8.119
41289W        W41770  15.975   9.820  10.757
41290W        W41771  16.101  10.058   8.134
41291W        W41772  15.322   8.798   7.393
41292W        W41773  14.661  10.884  14.292
41293W        W41774  15.037   9.777  13.815
41294W        W41775  17.742   9.507  11.585
41295W        W41776  15.790  10.583  11.138
41296W        W41777  15.873   8.735  12.121
41297W        W41778  15.388   8.583  12.285
41298W        W41779  16.379   9.398  11.719
41299W        W41780  16.054  10.490  14.074
41300W        W41781  14.703   8.051  14.037
41301W        W41782  15.465   7.331  13.839
41302W        W41783  17.159   7.719  12.726
41303W        W41784  16.808   8.590  11.296
41304W        W41785  17.378   8.024  14.387
41305W        W41786  14.744   7.816  13.512
41306W        W41787  14.843  10.435  14.533
41307W        W41788  16.365   9.825  11.265
41308W        W41789  14.797   8.608  12.958
41309W        W41790  15.690   8.499  14.195
41310W        W41791  16.221   8.734  12.580
41311W        W41792  16.767  10.073  12.949
41312W        W41793  15.267   9.507  13.181
41313W        W41794  14.626   9.035  12.752
41314W        W41795  15.662   9.007  13.944
41315W        W41796  15.549  10.234  12.643
41316W        W41797  16.670   9.923  13.777
41317W        W41798  15.890   8.563  13.002
41318W        W41799  16.182   9.347  12.645
41319W        W41800  17.179  10.120  14.493
41320W        W41801  16.258   9.440  14.503
41321W        W41802  16.239   9.156  13.981
41322W        W41803  14.648   8.547  14.503
41323W        W41804  17.480  10.082  14.102
41324W        W41805  15.061   7.664  12.100
41325W        W41806  15.588   9.922  13.099
41326W        W41807  17.464   8.105  12.956
41327W        W41808  16.181  10.566  13.110
41328W        W41809  15.084  10.818  11.302
41329W        W41810  15.477  10.864  11.978
41330W        W41811  15.274   7.618  13.404
41331W        W41812  17.302   9.058  12.138
41332W        W41813  17.268   8.746  11.165
41333W        W41814  16.476   9.890  13.305
41334W        W41815  16.282   8.220  12.504
41335W        W41816  16.882  10.307  13.498
41336W        W41817  16.655   7.756  11.936
41337W        W41818  15.312  10.450  11.619
41338W        W41819  14.683   7.949  12.218
41339W        W41820  17.469   8.556  12.692
41340W        W41821  14.927  10.173  12.607
41341W        W41822  16.268  10.523  11.477
41342W        W41823  14.683  10.307  13.105
41343W        W41824  15.474   9.879  13.585
41344W        W41825  15.847   9.239  12.204
41345W        W41826  15.869   7.644  13.297
41346W        W41827  15.317   9.278  11.062
41347W        W41828  14.972   8.311  11.241
41348W        W41829  15.034  10.267  12.035
41349W        W41830  16.165   9.750  12.283
41350W        W41831  17.497  10.609  13.997
41351W        W41832  16.423   8.251  11.681
41352W        W41833  17.483   8.502  14.051
41353W        W41834  16.823   9.450  13.669
41354W        W41835  14.589   9.001  11.875
41355W        W41836  15.700   9.416  13.448
41356W        W41837  16.904   8.680  11.826
41357W        W41838  16.781   9.170  11.930
41358W        W41839  15.124   8.590  13.404
41359W        W41840  15.109   8.466  14.326
41360W        W41841  14.999   7.383  12.485
41361W        W41842  16.767   7.730  13.046
41362W        W41843  16.415   7.915  14.209
41363W        W41844  16.770   8.064  11.387
41364W        W41845  16.920   7.538  14.180
41365W        W41846  17.939   9.839  14.302
41366W        W41847  17.369   8.006  13.898
41367W        W41848  17.169   7.944  12.168
41368W        W41849  17.562   9.078  14.572
41369W        W41850  15.302  10.654  12.558
41370W        W41851  15.960   8.371  11.544
41371W        W41852  15.529   7.655  14.208
41372W        W41853  17.581   8.139  11.889
41373W        W41854  15.691  10.838  14.305
41374W        W41855  15.617   7.374  11.540
41375W        W41856  14.995   9.360  12.722
41376W        W41857  16.912   7.947  10.952
41377W        W41858  16.530   8.685  13.976
41378W        W41859  16.623  10.024  11.679
41379W        W41860  17.023   9.318  14.419
41380W        W41861  16.697   7.295  12.728
41381W        W41862  15.309   8.198  12.791
41382W        W41863  14.863   9.398  13.565
41383W        W41864  16.722  10.591  12.271
41384W        W41865  16.553  10.535  13.910
41385W        W41866  16.331   9.077  12.176
41386W        W41867  16.332   9.423  13.511
41387W        W41868  16.549   8.309  12.956
41388W        W41869  17.401   8.607  11.794
41389W        W41870  17.688   8.340  11.436
41390W        W41871  17.497  10.380  11.825
41391W        W41872  17.331   9.983  12.621
41392W        W41873  17.227   9.062  11.599
41393W        W41874  16.660   9.272  12.585
41394W        W41875  17.541   9.060  12.652
41395W        W41876  14.916   8.075  13.076
41396W        W41877  17.694   9.127  13.903
41397W        W41878  15.975  10.189  12.451
41398W        W41879  16.982  10.722  13.775
41399W        W41880  16.976   8.052  13.539
41400W        W41881  16.183  10.760  13.600
41401W        W41882  17.671   9.033  13.367
41402W        W41883  14.654   8.354  13.405
41403W        W41884  17.514   8.149  12.423
41404W        W41885  16.810   9.999  12.418
41405W        W41886  16.066  10.590  12.031
41406W        W41887  15.181   7.770  11.289
41407W        W41888  16.285   7.424  13.099
41408W        W41889  15.313  10.544  10.947
41409W        W41890  15.687   9.010  11.698
41410W        W41891  16.341   9.639  14.011
41411W        W41892  16.171   7.997  12.001
41412W        W41893  17.527   7.594  12.429
41413W        W41894  17.247  10.876  12.757
41414W        W41895  16.659  10.524  13.097
41415W        W41896  16.055   9.561  13.058
41416W        W41897  15.519   7.787  11.953
41417W        W41898  16.041  10.084  12.913
41418W        W41899  15.524   8.015  10.978
41419W        W41900  16.325   8.624  13.372
41420W        W41901  17.173   7.490  13.242
41421W        W41902  14.593   9.333  13.127
41422W        W41903  16.297   9.151  11.285
41423W        W41904  15.565   7.466  11.055
41424W        W41905  16.303   8.547  12.106
41425W        W41906  17.273   7.523  13.805
41426W        W41907  15.861   9.535  13.914
41427W        W41908  16.665   9.317  14.131
41428W        W41909  17.282   9.347  14.024
41429W        W41910  16.566   7.487  14.529
41430W        W41911  15.788   8.103  12.922
41431W        W41912  15.214   8.059  12.320
41432W        W41913  15.000  10.771  11.996
41433W        W41914  16.332  10.101  14.121
41434W        W41915  15.367   9.586  11.480
41435W        W41916  17.047   8.971  12.701
41436W        W41917  17.327   8.770  13.100
41437W        W41918  16.532   9.444  13.034
41438W        W41919  17.002   9.818  11.166
41439W        W41920  16.674   7.839  12.494
41440W        W41921  14.647  10.706  13.793
41441W        W41922  15.064   9.932  13.325
41442W        W41923  14.631  10.778  11.557
41443W        W41924  16.530   8.048  13.363
41444W        W41925  15.893  10.071  11.212
41445W        W41926  17.798  10.453  11.398
41446W        W41927  16.773   9.106  11.412
41447W        W41928  15.616   8.297  11.929
41448W        W41929  16.448   8.207  10.981
41449W        W41930  17.032   9.772  14.159
41450W        W41931  17.385   7.678  11.776
41451W        W41932  14.715   7.526  11.224
41452W        W41933  16.001   9.845  13.514
41453W        W41934  15.800   9.761  12.606
41454W        W41935  15.542   9.713  11.004
41455W        W41936  14.783   9.954  11.772
41456W        W41937  15.287   9.024  14.214
41457W        W41938  15.991   7.584  14.400
41458W        W41939  16.700   7.726  13.756
41459W        W41940  15.895   7.494  12.037
41460W        W41941  16.954   7.571  11.542
41461W        W41942  14.899   7.503  13.119
41462W        W41943  14.947   8.466  12.489
41463W        W41944  17.636   7.574  12.895
41464W        W41945  15.058   8.072  11.709
41465W        W41946  17.629   7.760  13.325
41466W        W41947  15.317   7.721  12.829
41467W        W41948  16.431   8.293  13.769
41468W        W41949  14.579   7.983  11.247
41469W        W41950  15.365   9.372  13.808
41470W        W41951  16.723   8.770  12.987
41471W        W41952  16.590  10.849  11.283
41472W        W41953  14.736   9.356  10.980
41473W        W41954  15.471   9.767  14.106
41474W        W41955  14.992   8.934  13.737
41475W        W41956  15.983   9.039  13.531
41476W        W41957  17.751   7.398  13.793
41477W        W41958  17.000   9.540  11.569
41478W        W41959  17.474  10.840  11.264
41479W        W41960  16.651   8.830  14.406
41480W        W41961  14.981   9.797  14.446
41481W        W41962  16.213  10.777  14.496
41482W        W41963  16.068   7.406  11.223
41483W        W41964  17.607  10.005  11.166
41484W        W41965  15.376   8.098  14.052
41485W        W41966  15.810  10.092  13.914
41486W        W41967  17.147  10.742  11.680
41487W        W41968  17.386   9.361  13.047
41488W        W41969  15.636   7.777  13.714
41489W        W41970  16.105   8.846  14.471
41490W        W41971  15.608  10.025  11.665
41491W        W41972  17.363   9.523  11.929
41492W        W41973  16.460  10.211  12.117
41493W        W41974  16.432   7.404  14.017
41494W        W41975  17.212  10.109  13.096
41495W        W41976  17.515  10.453  12.804
41496W        W41977  16.734  10.255  11.232
41497W        W41978  14.744  10.147  14.074
41498W        W41979  15.487   8.139  13.312
41499W        W41980  15.457   7.487  12.422
41500W        W41981  17.078   8.329  13.114
41501W        W41982  15.876   9.500  11.314
41502W        W41983  15.201  10.200  14.236
41503W        W41984  17.588  10.882  12.033
41504W        W41985  15.687   7.902  12.478
41505W        W41986  15.456   9.395  12.568
41506W        W41987  16.995   9.090  13.283
41507W        W41988  14.844   8.888  11.198
41508W        W41989  15.954   7.389  13.917
41509W        W41990  17.660  10.191  12.375
41510W        W41991  17.689   8.747  12.280
41511W        W41992  15.806   8.420  12.496
41512W        W41993  16.051   8.682  13.820
41513W        W41994  17.162   9.835  13.683
41514W        W41995  15.812   8.289  13.795
41515W        W41996  15.791  10.755  12.411
41516W        W41997  15.108  10.714  14.045
41517W        W41998  15.220  10.075  11.175
41518W        W41999  17.737   9.833  11.985
41519W        W42000  15.341   8.625  13.871
41520W        W42001  15.859   9.612  11.823
41521W        W42002  16.958   8.994  13.904
41522W        W42003  16.849   8.622  13.448
41523W        W42004  15.409   8.994  13.477
41524W        W42005  17.619  10.882  13.306
41525W        W42006  17.410   7.516  14.300
41526W        W42007  15.074   7.666  13.887
41527W        W42008  15.413   8.689  12.940
41528W        W42009  15.782   8.503  11.062
41529W        W42010  14.585  10.262  13.607
41530W        W42011  16.170   8.971  13.050
41531W        W42012  15.993   7.996  11.155
41532W        W42013  15.128   8.812  11.936
41533W        W42014  14.899  10.664  13.373
41534W        W42015  17.694   8.890  11.481
41535W        W42016  17.225  10.015  12.130
41536W        W42017  14.823   8.939  14.307
41537W        W42018  17.309   9.878  11.614
41538W        W42019  16.211   8.936  11.699
41539W        W42020  17.398   7.740  11.222
41540W        W42021  17.463   8.347  13.408
41541W        W42022  15.172   8.940  12.615
41542W        W42023  15.466   9.879  12.264
41543W        W42024  17.229   8.499  12.229
41544W        W42025  16.252   7.878  12.925
41545W        W42026  14.671  10.606  12.373
41546W        W42027  15.180   9.793  11.909
41547W        W42028  15.095   7.410  14.462
41548W        W42029  16.214  10.263  14.564
41549W        W42030  17.323   9.408  11.234
41550W        W42031  16.618  10.929  13.446
41551W        W42032  17.475   9.651  14.483
41552W        W42033  16.290   7.361  11.763
41553W        W42034  17.003   8.230  12.622
41554W        W42035  14.689   9.817  12.954
41555W        W42036  15.942   7.779  11.595
41556W        W42037  15.746   9.263  14.444
41557W        W42038  16.740   8.244  12.158
41558W        W42039  16.945   9.654  13.280
41559W        W42040  15.099  10.259  13.715
41560W        W42041  15.690  10.242  14.438
41561W        W42042  15.541   8.039  11.452
41562W        W42043  17.058   8.181  11.777
41563W        W42044  17.016  10.289  14.014
41564W        W42045  15.701   8.881  12.613
41565W        W42046  15.356  10.579  13.478
41566W        W42047  14.964   9.368  14.075
41567W        W42048  16.959   9.630  12.763
41568W        W42049  15.395   9.279  12.005
41569W        W42050  15.766  10.286  13.400
41570W        W42051  16.144   7.705  12.441
41571W        W42052  14.755   9.689  11.371
41572W        W42053  16.274   8.640  11.241
41573W        W42054  14.920   9.189  12.260
41574W        W42055  16.210   7.831  13.724
41575W        W42056  16.629  10.543  14.402
41576W        W42057  17.595  10.435  14.535
41577W        W42058  15.334  10.891  13.013
41578W        W42059  16.723   8.780  12.400
41579W        W42060  16.490   7.392  12.290
41580W        W42061  15.549  10.376  12.127
41581W        W42062  16.048   8.117  13.352
41582W        W42063  15.748   7.486  12.821
41583W        W42064  14.811  10.308  11.369
41584W        W42065  16.627   9.672  12.087
41585W        W42066  15.502  10.467  13.966
41586W        W42067  14.979   9.290  11.662
41587W        W42068  14.864   7.833  12.661
41588W        W42069  16.412   9.798  12.718
41589W        W42070  14.664   7.652  11.738
41590W        W42071  17.328   8.858  13.665
41591W        W42072  17.205   8.244  11.237
41592W        W42073  16.383  10.400  12.716
41593W        W42074  15.795  10.504  11.627
41594W        W42075  14.877  10.667  12.798
41595W        W42076  17.074   8.425  14.433
41596W        W42077  15.057   7.955  14.432
41597W        W42078  14.788   8.555  11.765
41598W        W42079  15.479   8.544  11.490
41599W        W42080  17.242   8.871  14.307
41600W        W42081  15.585   9.152  13.016
41601W        W42082  17.059   7.438  12.136
41602W        W42083  16.190  10.869  12.639
41603W        W42084  17.404  10.331  13.576
41604W        W42085  16.988  10.480  12.687
41605W        W42086  17.007   9.460  12.281
41606W        W42087  16.469   7.685  11.352
41607W        W42088  15.838   8.948  11.237
41608W        W42089  16.696   9.455  11.104
41609W        W42090  17.632   9.655  13.852
41610W        W42091  17.286  10.356  11.319
41611W        W42092  15.901   8.031  14.225
41612W        W42093  15.721   8.615  13.466
41613W        W42094  16.913   8.060  14.120
41614W        W42095  14.757   8.531  13.897
41615W        W42096  16.517   9.008  13.623
41616W        W42097  14.874   9.766  12.280
41617W        W42098  15.021   9.063  13.170
41618W        W42099  17.338   9.349  13.520
41619W        W42100  17.110  10.729  14.331
41620W        W42101  17.006   8.468  13.884
41621W        W42102  17.283  10.522  12.289
41622W        W42103  16.285  10.242  13.612
41623W        W42104  15.770  10.597  12.881
41624W        W42105  17.575   9.768  13.300
41625W        W42106  16.625   9.840  14.437
41626W        W42107  15.230   9.793  12.776
41627W        W42108  17.576   9.552  12.421
41628W        W42109  17.217  10.618  13.172
41629W        W42110  15.195  10.347  13.042
41630W        W42111  16.216   8.399  14.252
41631W        W42112  16.667  10.565  11.763
41632W        W42113  15.975   9.820  14.401
41633W        W42114  16.101  10.058  11.778
41634W        W42115  15.322   8.798  11.037
41635W        W42116  15.037   9.777  17.459
41636W        W42117  17.742   9.507  15.229
41637W        W42118  15.790  10.583  14.782
41638W        W42119  15.873   8.735  15.765
41639W        W42120  15.388   8.583  15.929
41640W        W42121  16.379   9.398  15.363
41641W        W42122  16.054  10.490  17.718
41642W        W42123  14.703   8.051  17.681
41643W        W42124  15.465   7.331  17.483
41644W        W42125  17.159   7.719  16.370
41645W        W42126  16.808   8.590  14.940
41646W        W42127  14.744   7.816  17.156
41647W        W42128  16.365   9.825  14.909
41648W        W42129  14.797   8.608  16.602
41649W        W42130  16.221   8.734  16.224
41650W        W42131  16.767  10.073  16.593
41651W        W42132  15.267   9.507  16.825
41652W        W42133  14.626   9.035  16.396
41653W        W42134  15.662   9.007  17.588
41654W        W42135  15.549  10.234  16.287
41655W        W42136  16.670   9.923  17.421
41656W        W42137  15.890   8.563  16.646
41657W        W42138  16.182   9.347  16.289
41658W        W42139  16.239   9.156  17.625
41659W        W42140  17.480  10.082  17.746
41660W        W42141  15.061   7.664  15.744
41661W        W42142  15.588   9.922  16.743
41662W        W42143  17.464   8.105  16.600
41663W        W42144  16.181  10.566  16.754
41664W        W42145  15.084  10.818  14.946
41665W        W42146  15.477  10.864  15.622
41666W        W42147  15.274   7.618  17.048
41667W        W42148  17.302   9.058  15.782
41668W        W42149  17.268   8.746  14.809
41669W        W42150  16.476   9.890  16.949
41670W        W42151  16.282   8.220  16.148
41671W        W42152  16.882  10.307  17.142
41672W        W42153  16.655   7.756  15.580
41673W        W42154  15.312  10.450  15.263
41674W        W42155  14.683   7.949  15.862
41675W        W42156  17.469   8.556  16.336
41676W        W42157  14.927  10.173  16.251
41677W        W42158  16.268  10.523  15.121
41678W        W42159  14.683  10.307  16.749
41679W        W42160  15.474   9.879  17.229
41680W        W42161  15.847   9.239  15.848
41681W        W42162  15.869   7.644  16.941
41682W        W42163  15.317   9.278  14.706
41683W        W42164  14.972   8.311  14.885
41684W        W42165  15.034  10.267  15.679
41685W        W42166  16.165   9.750  15.927
41686W        W42167  17.497  10.609  17.641
41687W        W42168  16.423   8.251  15.325
41688W        W42169  16.823   9.450  17.313
41689W        W42170  14.589   9.001  15.519
41690W        W42171  15.700   9.416  17.092
41691W        W42172  16.904   8.680  15.470
41692W        W42173  16.781   9.170  15.574
41693W        W42174  15.124   8.590  17.048
41694W        W42175  14.999   7.383  16.129
41695W        W42176  16.767   7.730  16.690
41696W        W42177  16.770   8.064  15.031
41697W        W42178  16.920   7.538  17.824
41698W        W42179  17.939   9.839  17.946
41699W        W42180  17.369   8.006  17.542
41700W        W42181  17.169   7.944  15.812
41701W        W42182  15.302  10.654  16.202
41702W        W42183  15.960   8.371  15.188
41703W        W42184  17.581   8.139  15.533
41704W        W42185  15.617   7.374  15.184
41705W        W42186  14.995   9.360  16.366
41706W        W42187  16.912   7.947  14.596
41707W        W42188  16.530   8.685  17.620
41708W        W42189  16.623  10.024  15.323
41709W        W42190  15.309   8.198  16.435
41710W        W42191  14.863   9.398  17.209
41711W        W42192  16.722  10.591  15.915
41712W        W42193  16.331   9.077  15.820
41713W        W42194  16.332   9.423  17.155
41714W        W42195  16.549   8.309  16.600
41715W        W42196  17.401   8.607  15.438
41716W        W42197  17.688   8.340  15.080
41717W        W42198  17.497  10.380  15.469
41718W        W42199  17.331   9.983  16.265
41719W        W42200  17.227   9.062  15.243
41720W        W42201  16.660   9.272  16.229
41721W        W42202  17.541   9.060  16.296
41722W        W42203  14.916   8.075  16.720
41723W        W42204  17.694   9.127  17.547
41724W        W42205  15.975  10.189  16.095
41725W        W42206  16.982  10.722  17.419
41726W        W42207  16.976   8.052  17.183
41727W        W42208  16.183  10.760  17.244
41728W        W42209  17.671   9.033  17.011
41729W        W42210  14.654   8.354  17.049
41730W        W42211  17.514   8.149  16.067
41731W        W42212  16.810   9.999  16.062
41732W        W42213  16.066  10.590  15.675
41733W        W42214  15.181   7.770  14.933
41734W        W42215  16.285   7.424  16.743
41735W        W42216  15.313  10.544  14.591
41736W        W42217  15.687   9.010  15.342
41737W        W42218  16.341   9.639  17.655
41738W        W42219  16.171   7.997  15.645
41739W        W42220  17.527   7.594  16.073
41740W        W42221  17.247  10.876  16.401
41741W        W42222  16.659  10.524  16.741
41742W        W42223  16.055   9.561  16.702
41743W        W42224  15.519   7.787  15.597
41744W        W42225  16.041  10.084  16.557
41745W        W42226  15.524   8.015  14.622
41746W        W42227  16.325   8.624  17.016
41747W        W42228  17.173   7.490  16.886
41748W        W42229  14.593   9.333  16.771
41749W        W42230  16.297   9.151  14.929
41750W        W42231  15.565   7.466  14.699
41751W        W42232  16.303   8.547  15.750
41752W        W42233  17.273   7.523  17.449
41753W        W42234  15.861   9.535  17.558
41754W        W42235  17.282   9.347  17.668
41755W        W42236  15.788   8.103  16.566
41756W        W42237  15.214   8.059  15.964
41757W        W42238  15.000  10.771  15.640
41758W        W42239  16.332  10.101  17.765
41759W        W42240  15.367   9.586  15.124
41760W        W42241  17.047   8.971  16.345
41761W        W42242  17.327   8.770  16.744
41762W        W42243  16.532   9.444  16.678
41763W        W42244  16.674   7.839  16.138
41764W        W42245  14.647  10.706  17.437
41765W        W42246  15.064   9.932  16.969
41766W        W42247  14.631  10.778  15.201
41767W        W42248  16.530   8.048  17.007
41768W        W42249  15.893  10.071  14.856
41769W        W42250  17.798  10.453  15.042
41770W        W42251  16.773   9.106  15.056
41771W        W42252  15.616   8.297  15.573
41772W        W42253  16.448   8.207  14.625
41773W        W42254  17.385   7.678  15.420
41774W        W42255  14.715   7.526  14.868
41775W        W42256  16.001   9.845  17.158
41776W        W42257  15.800   9.761  16.250
41777W        W42258  15.542   9.713  14.648
41778W        W42259  14.783   9.954  15.416
41779W        W42260  16.700   7.726  17.400
41780W        W42261  15.895   7.494  15.681
41781W        W42262  16.954   7.571  15.186
41782W        W42263  14.899   7.503  16.763
41783W        W42264  14.947   8.466  16.133
41784W        W42265  17.636   7.574  16.539
41785W        W42266  15.058   8.072  15.353
41786W        W42267  17.629   7.760  16.969
41787W        W42268  15.317   7.721  16.473
41788W        W42269  16.431   8.293  17.413
41789W        W42270  14.579   7.983  14.891
41790W        W42271  15.365   9.372  17.452
41791W        W42272  16.723   8.770  16.631
41792W        W42273  16.590  10.849  14.927
41793W        W42274  14.736   9.356  14.624
41794W        W42275  14.992   8.934  17.381
41795W        W42276  15.983   9.039  17.175
41796W        W42277  17.751   7.398  17.437
41797W        W42278  17.000   9.540  15.213
41798W        W42279  17.474  10.840  14.908
41799W        W42280  16.068   7.406  14.867
41800W        W42281  17.607  10.005  14.810
41801W        W42282  15.810  10.092  17.558
41802W        W42283  17.147  10.742  15.324
41803W        W42284  17.386   9.361  16.691
41804W        W42285  15.636   7.777  17.358
41805W        W42286  15.608  10.025  15.309
41806W        W42287  17.363   9.523  15.573
41807W        W42288  15.131   8.149  17.297
41808W        W42289  16.460  10.211  15.761
41809W        W42290  16.432   7.404  17.661
41810W        W42291  17.212  10.109  16.740
41811W        W42292  17.515  10.453  16.448
41812W        W42293  16.734  10.255  14.876
41813W        W42294  14.744  10.147  17.718
41814W        W42295  15.487   8.139  16.956
41815W        W42296  15.457   7.487  16.066
41816W        W42297  17.078   8.329  16.758
41817W        W42298  15.876   9.500  14.958
41818W        W42299  17.588  10.882  15.677
41819W        W42300  15.687   7.902  16.122
41820W        W42301  15.456   9.395  16.212
41821W        W42302  15.769  10.806  16.962
41822W        W42303  16.995   9.090  16.927
41823W        W42304  14.844   8.888  14.842
41824W        W42305  15.954   7.389  17.561
41825W        W42306  17.660  10.191  16.019
41826W        W42307  17.689   8.747  15.924
41827W        W42308  15.806   8.420  16.140
41828W        W42309  16.051   8.682  17.464
41829W        W42310  17.162   9.835  17.327
41830W        W42311  15.812   8.289  17.439
41831W        W42312  15.791  10.755  16.055
41832W        W42313  15.220  10.075  14.819
41833W        W42314  17.737   9.833  15.629
41834W        W42315  15.341   8.625  17.515
41835W        W42316  15.859   9.612  15.467
41836W        W42317  16.958   8.994  17.548
41837W        W42318  16.849   8.622  17.092
41838W        W42319  15.409   8.994  17.121
41839W        W42320  17.619  10.882  16.950
41840W        W42321  15.074   7.666  17.531
41841W        W42322  15.413   8.689  16.584
41842W        W42323  15.782   8.503  14.706
41843W        W42324  14.585  10.262  17.251
41844W        W42325  16.170   8.971  16.694
41845W        W42326  15.128   8.812  15.580
41846W        W42327  14.899  10.664  17.017
41847W        W42328  17.694   8.890  15.125
41848W        W42329  17.225  10.015  15.774
41849W        W42330  17.309   9.878  15.258
41850W        W42331  16.211   8.936  15.343
41851W        W42332  17.398   7.740  14.866
41852W        W42333  17.463   8.347  17.052
41853W        W42334  15.172   8.940  16.259
41854W        W42335  15.466   9.879  15.908
41855W        W42336  17.229   8.499  15.873
41856W        W42337  16.252   7.878  16.569
41857W        W42338  14.671  10.606  16.017
41858W        W42339  15.180   9.793  15.553
41859W        W42340  17.323   9.408  14.878
41860W        W42341  16.618  10.929  17.090
41861W        W42342  16.290   7.361  15.407
41862W        W42343  17.003   8.230  16.266
41863W        W42344  14.689   9.817  16.598
41864W        W42345  16.740   8.244  15.802
41865W        W42346  16.945   9.654  16.924
41866W        W42347  15.099  10.259  17.359
41867W        W42348  15.541   8.039  15.096
41868W        W42349  17.058   8.181  15.421
41869W        W42350  17.016  10.289  17.658
41870W        W42351  15.701   8.881  16.257
41871W        W42352  15.356  10.579  17.122
41872W        W42353  16.959   9.630  16.407
41873W        W42354  15.395   9.279  15.649
41874W        W42355  15.766  10.286  17.044
41875W        W42356  16.144   7.705  16.085
41876W        W42357  14.755   9.689  15.015
41877W        W42358  16.274   8.640  14.885
41878W        W42359  14.920   9.189  15.904
41879W        W42360  16.210   7.831  17.368
41880W        W42361  15.334  10.891  16.657
41881W        W42362  16.723   8.780  16.044
41882W        W42363  16.490   7.392  15.934
41883W        W42364  15.549  10.376  15.771
41884W        W42365  16.048   8.117  16.996
41885W        W42366  15.748   7.486  16.465
41886W        W42367  14.811  10.308  15.013
41887W        W42368  16.627   9.672  15.731
41888W        W42369  15.502  10.467  17.610
41889W        W42370  14.979   9.290  15.306
41890W        W42371  14.864   7.833  16.305
41891W        W42372  16.412   9.798  16.362
41892W        W42373  14.664   7.652  15.382
41893W        W42374  17.328   8.858  17.309
41894W        W42375  17.205   8.244  14.881
41895W        W42376  16.383  10.400  16.360
41896W        W42377  15.795  10.504  15.271
41897W        W42378  17.077   7.407  14.701
41898W        W42379  14.877  10.667  16.442
41899W        W42380  14.788   8.555  15.409
41900W        W42381  15.479   8.544  15.134
41901W        W42382  15.585   9.152  16.660
41902W        W42383  17.059   7.438  15.780
41903W        W42384  16.190  10.869  16.283
41904W        W42385  17.404  10.331  17.220
41905W        W42386  16.988  10.480  16.331
41906W        W42387  17.007   9.460  15.925
41907W        W42388  16.469   7.685  14.996
41908W        W42389  15.838   8.948  14.881
41909W        W42390  16.696   9.455  14.748
41910W        W42391  17.632   9.655  17.496
41911W        W42392  17.286  10.356  14.963
41912W        W42393  15.721   8.615  17.110
41913W        W42394  14.757   8.531  17.541
41914W        W42395  16.517   9.008  17.267
41915W        W42396  14.874   9.766  15.924
41916W        W42397  15.021   9.063  16.814
41917W        W42398  17.338   9.349  17.164
41918W        W42399  17.110  10.729  17.975
41919W        W42400  17.006   8.468  17.528
41920W        W42401  17.283  10.522  15.933
41921W        W42402  16.285  10.242  17.256
41922W        W42403  15.770  10.597  16.525
41923W        W42404  17.575   9.768  16.944
41924W        W42405  15.230   9.793  16.420
41925W        W42406  17.576   9.552  16.065
41926W        W42407  17.217  10.618  16.816
41927W        W42408  15.195  10.347  16.686
41928W        W42409  16.667  10.565  15.407
41929W        W42410  16.101  10.058  15.422
41930W        W42411  15.322   8.798  14.681
41931W        W42412  14.661  14.528   3.359
41932W        W42413  15.037  13.421   2.882
41933W        W42414  17.742  13.151   0.652
41934W        W42415  15.790  14.227   0.205
41935W        W42416  15.873  12.379   1.188
41936W        W42417  15.388  12.227   1.352
41937W        W42418  16.379  13.042   0.786
41938W        W42419  14.703  11.695   3.104
41939W        W42420  15.465  10.975   2.906
41940W        W42421  17.159  11.363   1.793
41941W        W42422  16.808  12.234   0.363
41942W        W42423  17.378  11.668   3.454
41943W        W42424  14.744  11.460   2.579
41944W        W42425  14.843  14.079   3.600
41945W        W42426  16.365  13.469   0.332
41946W        W42427  14.797  12.252   2.025
41947W        W42428  15.690  12.143   3.262
41948W        W42429  16.221  12.378   1.647
41949W        W42430  16.767  13.717   2.016
41950W        W42431  15.267  13.151   2.248
41951W        W42432  14.626  12.679   1.819
41952W        W42433  15.662  12.651   3.011
41953W        W42434  15.549  13.878   1.710
41954W        W42435  16.670  13.567   2.844
41955W        W42436  15.890  12.207   2.069
41956W        W42437  16.182  12.991   1.712
41957W        W42438  17.179  13.764   3.560
41958W        W42439  16.258  13.084   3.570
41959W        W42440  16.239  12.800   3.048
41960W        W42441  14.648  12.191   3.570
41961W        W42442  17.480  13.726   3.169
41962W        W42443  15.061  11.308   1.167
41963W        W42444  15.588  13.566   2.166
41964W        W42445  17.464  11.749   2.023
41965W        W42446  16.181  14.210   2.177
41966W        W42447  15.084  14.462   0.369
41967W        W42448  15.477  14.508   1.045
41968W        W42449  15.274  11.262   2.471
41969W        W42450  17.302  12.702   1.205
41970W        W42451  17.268  12.390   0.232
41971W        W42452  16.476  13.534   2.372
41972W        W42453  16.282  11.864   1.571
41973W        W42454  16.882  13.951   2.565
41974W        W42455  16.655  11.400   1.003
41975W        W42456  15.312  14.094   0.686
41976W        W42457  14.683  11.593   1.285
41977W        W42458  17.469  12.200   1.759
41978W        W42459  14.927  13.817   1.674
41979W        W42460  16.268  14.167   0.544
41980W        W42461  17.660  12.193   0.008
41981W        W42462  14.683  13.951   2.172
41982W        W42463  15.474  13.523   2.652
41983W        W42464  15.847  12.883   1.271
41984W        W42465  15.869  11.288   2.364
41985W        W42466  15.317  12.922   0.129
41986W        W42467  14.972  11.955   0.308
41987W        W42468  15.034  13.911   1.102
41988W        W42469  16.165  13.394   1.350
41989W        W42470  17.497  14.253   3.064
41990W        W42471  16.423  11.895   0.748
41991W        W42472  17.483  12.146   3.118
41992W        W42473  16.823  13.094   2.736
41993W        W42474  14.589  12.645   0.942
41994W        W42475  15.700  13.060   2.515
41995W        W42476  16.904  12.324   0.893
41996W        W42477  16.781  12.814   0.997
41997W        W42478  15.124  12.234   2.471
41998W        W42479  15.109  12.110   3.393
41999W        W42480  14.999  11.027   1.552
42000W        W42481  16.767  11.374   2.113
42001W        W42482  16.415  11.559   3.276
42002W        W42483  16.770  11.708   0.454
42003W        W42484  16.920  11.182   3.247
42004W        W42485  17.939  13.483   3.369
42005W        W42486  17.369  11.650   2.965
42006W        W42487  17.169  11.588   1.235
42007W        W42488  17.562  12.722   3.639
42008W        W42489  15.302  14.298   1.625
42009W        W42490  15.960  12.015   0.611
42010W        W42491  15.529  11.299   3.275
42011W        W42492  17.581  11.783   0.956
42012W        W42493  15.691  14.482   3.372
42013W        W42494  15.617  11.018   0.607
42014W        W42495  14.995  13.004   1.789
42015W        W42496  16.912  11.591   0.019
42016W        W42497  16.530  12.329   3.043
42017W        W42498  16.623  13.668   0.746
42018W        W42499  17.023  12.962   3.486
42019W        W42500  16.697  10.939   1.795
42020W        W42501  15.309  11.842   1.858
42021W        W42502  14.863  13.042   2.632
42022W        W42503  16.722  14.235   1.338
42023W        W42504  16.553  14.179   2.977
42024W        W42505  16.331  12.721   1.243
42025W        W42506  16.332  13.067   2.578
42026W        W42507  16.549  11.953   2.023
42027W        W42508  17.401  12.251   0.861
42028W        W42509  17.688  11.984   0.503
42029W        W42510  17.497  14.024   0.892
42030W        W42511  17.331  13.627   1.688
42031W        W42512  17.227  12.706   0.666
42032W        W42513  16.660  12.916   1.652
42033W        W42514  17.541  12.704   1.719
42034W        W42515  14.916  11.719   2.143
42035W        W42516  17.694  12.771   2.970
42036W        W42517  15.975  13.833   1.518
42037W        W42518  16.982  14.366   2.842
42038W        W42519  16.976  11.696   2.606
42039W        W42520  16.183  14.404   2.667
42040W        W42521  17.671  12.677   2.434
42041W        W42522  14.654  11.998   2.472
42042W        W42523  17.514  11.793   1.490
42043W        W42524  16.810  13.643   1.485
42044W        W42525  16.066  14.234   1.098
42045W        W42526  15.181  11.414   0.356
42046W        W42527  16.285  11.068   2.166
42047W        W42528  15.313  14.188   0.014
42048W        W42529  15.687  12.654   0.765
42049W        W42530  16.341  13.283   3.078
42050W        W42531  16.171  11.641   1.068
42051W        W42532  17.527  11.238   1.496
42052W        W42533  17.247  14.520   1.824
42053W        W42534  16.659  14.168   2.164
42054W        W42535  16.055  13.205   2.125
42055W        W42536  15.519  11.431   1.020
42056W        W42537  16.041  13.728   1.980
42057W        W42538  15.524  11.659   0.045
42058W        W42539  16.325  12.268   2.439
42059W        W42540  17.173  11.134   2.309
42060W        W42541  14.593  12.977   2.194
42061W        W42542  16.297  12.795   0.352
42062W        W42543  15.565  11.110   0.122
42063W        W42544  16.303  12.191   1.173
42064W        W42545  17.273  11.167   2.872
42065W        W42546  15.861  13.179   2.981
42066W        W42547  16.665  12.961   3.198
42067W        W42548  17.282  12.991   3.091
42068W        W42549  16.566  11.131   3.596
42069W        W42550  15.788  11.747   1.989
42070W        W42551  15.214  11.703   1.387
42071W        W42552  15.000  14.415   1.063
42072W        W42553  16.332  13.745   3.188
42073W        W42554  15.367  13.230   0.547
42074W        W42555  17.047  12.615   1.768
42075W        W42556  17.327  12.414   2.167
42076W        W42557  16.532  13.088   2.101
42077W        W42558  17.002  13.462   0.233
42078W        W42559  16.674  11.483   1.561
42079W        W42560  15.064  13.576   2.392
42080W        W42561  14.631  14.422   0.624
42081W        W42562  16.530  11.692   2.430
42082W        W42563  15.893  13.715   0.279
42083W        W42564  17.798  14.097   0.465
42084W        W42565  16.773  12.750   0.479
42085W        W42566  15.616  11.941   0.996
42086W        W42567  16.448  11.851   0.048
42087W        W42568  17.032  13.416   3.226
42088W        W42569  17.385  11.322   0.843
42089W        W42570  14.715  11.170   0.291
42090W        W42571  16.001  13.489   2.581
42091W        W42572  15.542  13.357   0.071
42092W        W42573  14.783  13.598   0.839
42093W        W42574  15.287  12.668   3.281
42094W        W42575  15.991  11.228   3.467
42095W        W42576  16.700  11.370   2.823
42096W        W42577  15.895  11.138   1.104
42097W        W42578  16.954  11.215   0.609
42098W        W42579  14.899  11.147   2.186
42099W        W42580  14.947  12.110   1.556
42100W        W42581  17.636  11.218   1.962
42101W        W42582  15.058  11.716   0.776
42102W        W42583  17.629  11.404   2.392
42103W        W42584  15.317  11.365   1.896
42104W        W42585  16.431  11.937   2.836
42105W        W42586  14.579  11.627   0.314
42106W        W42587  15.365  13.016   2.875
42107W        W42588  16.723  12.414   2.054
42108W        W42589  16.590  14.493   0.350
42109W        W42590  14.736  13.000   0.047
42110W        W42591  15.471  13.411   3.173
42111W        W42592  15.983  12.683   2.598
42112W        W42593  17.751  11.042   2.860
42113W        W42594  17.000  13.184   0.636
42114W        W42595  17.474  14.484   0.331
42115W        W42596  16.651  12.474   3.473
42116W        W42597  14.981  13.441   3.513
42117W        W42598  16.213  14.421   3.563
42118W        W42599  16.068  11.050   0.290
42119W        W42600  17.607  13.649   0.233
42120W        W42601  15.376  11.742   3.119
42121W        W42602  15.810  13.736   2.981
42122W        W42603  17.147  14.386   0.747
42123W        W42604  15.636  11.421   2.781
42124W        W42605  16.105  12.490   3.538
42125W        W42606  15.608  13.669   0.732
42126W        W42607  17.363  13.167   0.996
42127W        W42608  15.131  11.793   2.720
42128W        W42609  16.460  13.855   1.184
42129W        W42610  16.432  11.048   3.084
42130W        W42611  17.212  13.753   2.163
42131W        W42612  17.515  14.097   1.871
42132W        W42613  16.734  13.899   0.299
42133W        W42614  14.744  13.791   3.141
42134W        W42615  15.487  11.783   2.379
42135W        W42616  15.457  11.131   1.489
42136W        W42617  17.078  11.973   2.181
42137W        W42618  15.201  13.844   3.303
42138W        W42619  15.687  11.546   1.545
42139W        W42620  15.456  13.039   1.635
42140W        W42621  15.769  14.450   2.385
42141W        W42622  14.844  12.532   0.265
42142W        W42623  17.660  13.835   1.442
42143W        W42624  17.689  12.391   1.347
42144W        W42625  15.806  12.064   1.563
42145W        W42626  16.051  12.326   2.887
42146W        W42627  17.162  13.479   2.750
42147W        W42628  15.812  11.933   2.862
42148W        W42629  15.791  14.399   1.478
42149W        W42630  15.108  14.358   3.112
42150W        W42631  15.220  13.719   0.242
42151W        W42632  17.737  13.477   1.052
42152W        W42633  15.341  12.269   2.938
42153W        W42634  15.859  13.256   0.890
42154W        W42635  16.958  12.638   2.971
42155W        W42636  16.849  12.266   2.515
42156W        W42637  15.409  12.638   2.544
42157W        W42638  17.619  14.526   2.373
42158W        W42639  17.410  11.160   3.367
42159W        W42640  15.074  11.310   2.954
42160W        W42641  15.413  12.333   2.007
42161W        W42642  15.782  12.147   0.129
42162W        W42643  14.585  13.906   2.674
42163W        W42644  16.170  12.615   2.117
42164W        W42645  15.993  11.640   0.222
42165W        W42646  15.128  12.456   1.003
42166W        W42647  14.899  14.308   2.440
42167W        W42648  17.694  12.534   0.548
42168W        W42649  17.225  13.659   1.197
42169W        W42650  14.823  12.583   3.374
42170W        W42651  17.309  13.522   0.681
42171W        W42652  16.211  12.580   0.766
42172W        W42653  17.398  11.384   0.289
42173W        W42654  17.463  11.991   2.475
42174W        W42655  15.172  12.584   1.682
42175W        W42656  15.466  13.523   1.331
42176W        W42657  17.229  12.143   1.296
42177W        W42658  16.252  11.522   1.992
42178W        W42659  14.671  14.250   1.440
42179W        W42660  15.180  13.437   0.976
42180W        W42661  15.095  11.054   3.529
42181W        W42662  16.214  13.907   3.631
42182W        W42663  17.323  13.052   0.301
42183W        W42664  16.618  14.573   2.513
42184W        W42665  17.475  13.295   3.550
42185W        W42666  16.290  11.005   0.830
42186W        W42667  17.003  11.874   1.689
42187W        W42668  14.689  13.461   2.021
42188W        W42669  15.942  11.423   0.662
42189W        W42670  15.746  12.907   3.511
42190W        W42671  16.740  11.888   1.225
42191W        W42672  16.945  13.298   2.347
42192W        W42673  15.099  13.903   2.782
42193W        W42674  15.690  13.886   3.505
42194W        W42675  15.541  11.683   0.519
42195W        W42676  17.058  11.825   0.844
42196W        W42677  17.016  13.933   3.081
42197W        W42678  15.701  12.525   1.680
42198W        W42679  15.356  14.223   2.545
42199W        W42680  14.964  13.012   3.142
42200W        W42681  16.959  13.274   1.830
42201W        W42682  15.395  12.923   1.072
42202W        W42683  15.766  13.930   2.467
42203W        W42684  16.144  11.349   1.508
42204W        W42685  14.755  13.333   0.438
42205W        W42686  16.274  12.284   0.308
42206W        W42687  14.920  12.833   1.327
42207W        W42688  16.210  11.475   2.791
42208W        W42689  16.629  14.187   3.469
42209W        W42690  17.595  14.079   3.602
42210W        W42691  15.334  14.535   2.080
42211W        W42692  16.723  12.424   1.467
42212W        W42693  16.490  11.036   1.357
42213W        W42694  15.549  14.020   1.194
42214W        W42695  16.048  11.761   2.419
42215W        W42696  15.748  11.130   1.888
42216W        W42697  14.811  13.952   0.436
42217W        W42698  16.627  13.316   1.154
42218W        W42699  15.502  14.111   3.033
42219W        W42700  14.979  12.934   0.729
42220W        W42701  16.412  13.442   1.785
42221W        W42702  17.328  12.502   2.732
42222W        W42703  17.205  11.888   0.304
42223W        W42704  16.383  14.044   1.783
42224W        W42705  15.795  14.148   0.694
42225W        W42706  14.877  14.311   1.865
42226W        W42707  17.074  12.069   3.500
42227W        W42708  15.057  11.599   3.499
42228W        W42709  14.788  12.199   0.832
42229W        W42710  15.479  12.188   0.557
42230W        W42711  17.242  12.515   3.374
42231W        W42712  15.585  12.796   2.083
42232W        W42713  17.059  11.082   1.203
42233W        W42714  16.190  14.513   1.706
42234W        W42715  17.404  13.975   2.643
42235W        W42716  16.988  14.124   1.754
42236W        W42717  17.007  13.104   1.348
42237W        W42718  16.469  11.329   0.419
42238W        W42719  15.838  12.592   0.304
42239W        W42720  16.696  13.099   0.171
42240W        W42721  17.632  13.299   2.919
42241W        W42722  17.286  14.000   0.386
42242W        W42723  15.901  11.675   3.292
42243W        W42724  15.721  12.259   2.533
42244W        W42725  16.913  11.704   3.187
42245W        W42726  14.757  12.175   2.964
42246W        W42727  16.517  12.652   2.690
42247W        W42728  14.874  13.410   1.347
42248W        W42729  15.021  12.707   2.237
42249W        W42730  17.338  12.993   2.587
42250W        W42731  17.110  14.373   3.398
42251W        W42732  17.006  12.112   2.951
42252W        W42733  17.283  14.166   1.356
42253W        W42734  16.285  13.886   2.679
42254W        W42735  15.770  14.241   1.948
42255W        W42736  17.575  13.412   2.367
42256W        W42737  16.625  13.484   3.504
42257W        W42738  15.230  13.437   1.843
42258W        W42739  17.576  13.196   1.488
42259W        W42740  17.217  14.262   2.239
42260W        W42741  15.195  13.991   2.109
42261W        W42742  16.216  12.043   3.319
42262W        W42743  16.667  14.209   0.830
42263W        W42744  15.975  13.464   3.468
42264W        W42745  16.101  13.702   0.845
42265W        W42746  15.322  12.442   0.104
42266W        W42747  14.661  14.528   7.003
42267W        W42748  15.037  13.421   6.526
42268W        W42749  17.742  13.151   4.296
42269W        W42750  15.790  14.227   3.849
42270W        W42751  15.873  12.379   4.832
42271W        W42752  15.388  12.227   4.996
42272W        W42753  16.379  13.042   4.430
42273W        W42754  16.054  14.134   6.785
42274W        W42755  14.703  11.695   6.748
42275W        W42756  15.465  10.975   6.550
42276W        W42757  17.159  11.363   5.437
42277W        W42758  16.808  12.234   4.007
42278W        W42759  17.378  11.668   7.098
42279W        W42760  14.744  11.460   6.223
42280W        W42761  14.843  14.079   7.244
42281W        W42762  16.365  13.469   3.976
42282W        W42763  14.797  12.252   5.669
42283W        W42764  15.690  12.143   6.906
42284W        W42765  16.221  12.378   5.291
42285W        W42766  16.767  13.717   5.660
42286W        W42767  15.267  13.151   5.892
42287W        W42768  14.626  12.679   5.463
42288W        W42769  15.662  12.651   6.655
42289W        W42770  15.549  13.878   5.354
42290W        W42771  16.670  13.567   6.488
42291W        W42772  15.890  12.207   5.713
42292W        W42773  16.182  12.991   5.356
42293W        W42774  17.179  13.764   7.204
42294W        W42775  16.258  13.084   7.214
42295W        W42776  16.239  12.800   6.692
42296W        W42777  14.648  12.191   7.214
42297W        W42778  17.480  13.726   6.813
42298W        W42779  15.061  11.308   4.811
42299W        W42780  15.588  13.566   5.810
42300W        W42781  17.464  11.749   5.667
42301W        W42782  16.181  14.210   5.821
42302W        W42783  15.084  14.462   4.013
42303W        W42784  15.477  14.508   4.689
42304W        W42785  15.274  11.262   6.115
42305W        W42786  17.302  12.702   4.849
42306W        W42787  17.268  12.390   3.876
42307W        W42788  16.476  13.534   6.016
42308W        W42789  16.282  11.864   5.215
42309W        W42790  16.882  13.951   6.209
42310W        W42791  16.655  11.400   4.647
42311W        W42792  15.312  14.094   4.330
42312W        W42793  14.683  11.593   4.929
42313W        W42794  17.469  12.200   5.403
42314W        W42795  14.927  13.817   5.318
42315W        W42796  16.268  14.167   4.188
42316W        W42797  14.683  13.951   5.816
42317W        W42798  15.847  12.883   4.915
42318W        W42799  15.869  11.288   6.008
42319W        W42800  15.317  12.922   3.773
42320W        W42801  14.972  11.955   3.952
42321W        W42802  15.034  13.911   4.746
42322W        W42803  16.165  13.394   4.994
42323W        W42804  17.497  14.253   6.708
42324W        W42805  16.423  11.895   4.392
42325W        W42806  17.483  12.146   6.762
42326W        W42807  16.823  13.094   6.380
42327W        W42808  14.589  12.645   4.586
42328W        W42809  15.700  13.060   6.159
42329W        W42810  16.904  12.324   4.537
42330W        W42811  16.781  12.814   4.641
42331W        W42812  15.124  12.234   6.115
42332W        W42813  15.109  12.110   7.037
42333W        W42814  14.999  11.027   5.196
42334W        W42815  16.767  11.374   5.757
42335W        W42816  16.415  11.559   6.920
42336W        W42817  16.770  11.708   4.098
42337W        W42818  16.920  11.182   6.891
42338W        W42819  17.939  13.483   7.013
42339W        W42820  17.369  11.650   6.609
42340W        W42821  17.169  11.588   4.879
42341W        W42822  17.562  12.722   7.283
42342W        W42823  15.302  14.298   5.269
42343W        W42824  15.960  12.015   4.255
42344W        W42825  15.529  11.299   6.919
42345W        W42826  17.581  11.783   4.600
42346W        W42827  15.691  14.482   7.016
42347W        W42828  15.617  11.018   4.251
42348W        W42829  14.995  13.004   5.433
42349W        W42830  16.912  11.591   3.663
42350W        W42831  16.530  12.329   6.687
42351W        W42832  16.623  13.668   4.390
42352W        W42833  17.023  12.962   7.130
42353W        W42834  16.697  10.939   5.439
42354W        W42835  15.309  11.842   5.502
42355W        W42836  14.863  13.042   6.276
42356W        W42837  16.722  14.235   4.982
42357W        W42838  16.553  14.179   6.621
42358W        W42839  16.331  12.721   4.887
42359W        W42840  16.332  13.067   6.222
42360W        W42841  16.549  11.953   5.667
42361W        W42842  17.401  12.251   4.505
42362W        W42843  17.688  11.984   4.147
42363W        W42844  17.497  14.024   4.536
42364W        W42845  17.331  13.627   5.332
42365W        W42846  17.227  12.706   4.310
42366W        W42847  16.660  12.916   5.296
42367W        W42848  17.541  12.704   5.363
42368W        W42849  14.916  11.719   5.787
42369W        W42850  17.694  12.771   6.614
42370W        W42851  15.975  13.833   5.162
42371W        W42852  16.982  14.366   6.486
42372W        W42853  16.976  11.696   6.250
42373W        W42854  16.183  14.404   6.311
42374W        W42855  17.671  12.677   6.078
42375W        W42856  14.654  11.998   6.116
42376W        W42857  17.514  11.793   5.134
42377W        W42858  16.810  13.643   5.129
42378W        W42859  16.066  14.234   4.742
42379W        W42860  15.181  11.414   4.000
42380W        W42861  16.285  11.068   5.810
42381W        W42862  15.313  14.188   3.658
42382W        W42863  15.687  12.654   4.409
42383W        W42864  16.341  13.283   6.722
42384W        W42865  16.171  11.641   4.712
42385W        W42866  17.527  11.238   5.140
42386W        W42867  17.247  14.520   5.468
42387W        W42868  16.659  14.168   5.808
42388W        W42869  16.055  13.205   5.769
42389W        W42870  15.519  11.431   4.664
42390W        W42871  16.041  13.728   5.624
42391W        W42872  15.524  11.659   3.689
42392W        W42873  16.325  12.268   6.083
42393W        W42874  17.173  11.134   5.953
42394W        W42875  14.593  12.977   5.838
42395W        W42876  16.297  12.795   3.996
42396W        W42877  15.565  11.110   3.766
42397W        W42878  16.303  12.191   4.817
42398W        W42879  17.273  11.167   6.516
42399W        W42880  15.861  13.179   6.625
42400W        W42881  16.665  12.961   6.842
42401W        W42882  17.282  12.991   6.735
42402W        W42883  16.566  11.131   7.240
42403W        W42884  15.788  11.747   5.633
42404W        W42885  15.214  11.703   5.031
42405W        W42886  15.000  14.415   4.707
42406W        W42887  16.332  13.745   6.832
42407W        W42888  15.367  13.230   4.191
42408W        W42889  17.047  12.615   5.412
42409W        W42890  17.327  12.414   5.811
42410W        W42891  16.532  13.088   5.745
42411W        W42892  17.002  13.462   3.877
42412W        W42893  16.674  11.483   5.205
42413W        W42894  14.647  14.350   6.504
42414W        W42895  15.064  13.576   6.036
42415W        W42896  14.631  14.422   4.268
42416W        W42897  16.530  11.692   6.074
42417W        W42898  15.893  13.715   3.923
42418W        W42899  17.798  14.097   4.109
42419W        W42900  16.773  12.750   4.123
42420W        W42901  15.616  11.941   4.640
42421W        W42902  16.448  11.851   3.692
42422W        W42903  17.032  13.416   6.870
42423W        W42904  17.385  11.322   4.487
42424W        W42905  14.715  11.170   3.935
42425W        W42906  16.001  13.489   6.225
42426W        W42907  15.800  13.405   5.317
42427W        W42908  15.542  13.357   3.715
42428W        W42909  14.783  13.598   4.483
42429W        W42910  15.287  12.668   6.925
42430W        W42911  15.991  11.228   7.111
42431W        W42912  16.700  11.370   6.467
42432W        W42913  15.895  11.138   4.748
42433W        W42914  16.954  11.215   4.253
42434W        W42915  14.899  11.147   5.830
42435W        W42916  14.947  12.110   5.200
42436W        W42917  17.636  11.218   5.606
42437W        W42918  15.058  11.716   4.420
42438W        W42919  17.629  11.404   6.036
42439W        W42920  15.317  11.365   5.540
42440W        W42921  16.431  11.937   6.480
42441W        W42922  14.579  11.627   3.958
42442W        W42923  15.365  13.016   6.519
42443W        W42924  16.723  12.414   5.698
42444W        W42925  16.590  14.493   3.994
42445W        W42926  14.736  13.000   3.691
42446W        W42927  15.471  13.411   6.817
42447W        W42928  14.992  12.578   6.448
42448W        W42929  15.983  12.683   6.242
42449W        W42930  17.751  11.042   6.504
42450W        W42931  17.000  13.184   4.280
42451W        W42932  17.474  14.484   3.975
42452W        W42933  16.651  12.474   7.117
42453W        W42934  14.981  13.441   7.157
42454W        W42935  16.213  14.421   7.207
42455W        W42936  16.068  11.050   3.934
42456W        W42937  17.607  13.649   3.877
42457W        W42938  15.376  11.742   6.763
42458W        W42939  15.810  13.736   6.625
42459W        W42940  17.147  14.386   4.391
42460W        W42941  17.386  13.005   5.758
42461W        W42942  15.636  11.421   6.425
42462W        W42943  16.105  12.490   7.182
42463W        W42944  15.608  13.669   4.376
42464W        W42945  17.363  13.167   4.640
42465W        W42946  16.460  13.855   4.828
42466W        W42947  16.432  11.048   6.728
42467W        W42948  17.212  13.753   5.807
42468W        W42949  17.515  14.097   5.515
42469W        W42950  16.734  13.899   3.943
42470W        W42951  14.744  13.791   6.785
42471W        W42952  15.487  11.783   6.023
42472W        W42953  15.457  11.131   5.133
42473W        W42954  17.078  11.973   5.825
42474W        W42955  15.876  13.144   4.025
42475W        W42956  15.201  13.844   6.947
42476W        W42957  17.588  14.526   4.744
42477W        W42958  15.687  11.546   5.189
42478W        W42959  15.456  13.039   5.279
42479W        W42960  15.769  14.450   6.029
42480W        W42961  16.995  12.734   5.994
42481W        W42962  14.844  12.532   3.909
42482W        W42963  15.954  11.033   6.628
42483W        W42964  17.660  13.835   5.086
42484W        W42965  17.689  12.391   4.991
42485W        W42966  15.806  12.064   5.207
42486W        W42967  16.051  12.326   6.531
42487W        W42968  17.162  13.479   6.394
42488W        W42969  15.812  11.933   6.506
42489W        W42970  15.791  14.399   5.122
42490W        W42971  15.108  14.358   6.756
42491W        W42972  15.220  13.719   3.886
42492W        W42973  17.737  13.477   4.696
42493W        W42974  15.341  12.269   6.582
42494W        W42975  15.859  13.256   4.534
42495W        W42976  16.958  12.638   6.615
42496W        W42977  16.849  12.266   6.159
42497W        W42978  15.409  12.638   6.188
42498W        W42979  17.619  14.526   6.017
42499W        W42980  17.410  11.160   7.011
42500W        W42981  15.074  11.310   6.598
42501W        W42982  15.413  12.333   5.651
42502W        W42983  15.782  12.147   3.773
42503W        W42984  14.585  13.906   6.318
42504W        W42985  16.170  12.615   5.761
42505W        W42986  15.993  11.640   3.866
42506W        W42987  15.128  12.456   4.647
42507W        W42988  14.899  14.308   6.084
42508W        W42989  17.694  12.534   4.192
42509W        W42990  17.225  13.659   4.841
42510W        W42991  14.823  12.583   7.018
42511W        W42992  17.309  13.522   4.325
42512W        W42993  16.211  12.580   4.410
42513W        W42994  17.398  11.384   3.933
42514W        W42995  17.463  11.991   6.119
42515W        W42996  15.172  12.584   5.326
42516W        W42997  15.466  13.523   4.975
42517W        W42998  17.229  12.143   4.940
42518W        W42999  16.252  11.522   5.636
42519W        W43000  14.671  14.250   5.084
42520W        W43001  15.180  13.437   4.620
42521W        W43002  15.095  11.054   7.173
42522W        W43003  16.214  13.907   7.275
42523W        W43004  17.323  13.052   3.945
42524W        W43005  16.618  14.573   6.157
42525W        W43006  17.475  13.295   7.194
42526W        W43007  16.290  11.005   4.474
42527W        W43008  17.003  11.874   5.333
42528W        W43009  14.689  13.461   5.665
42529W        W43010  15.942  11.423   4.306
42530W        W43011  15.746  12.907   7.155
42531W        W43012  16.740  11.888   4.869
42532W        W43013  16.945  13.298   5.991
42533W        W43014  15.099  13.903   6.426
42534W        W43015  15.690  13.886   7.149
42535W        W43016  15.541  11.683   4.163
42536W        W43017  17.058  11.825   4.488
42537W        W43018  17.016  13.933   6.725
42538W        W43019  15.701  12.525   5.324
42539W        W43020  15.356  14.223   6.189
42540W        W43021  14.964  13.012   6.786
42541W        W43022  16.959  13.274   5.474
42542W        W43023  15.395  12.923   4.716
42543W        W43024  15.766  13.930   6.111
42544W        W43025  16.144  11.349   5.152
42545W        W43026  14.755  13.333   4.082
42546W        W43027  16.274  12.284   3.952
42547W        W43028  14.920  12.833   4.971
42548W        W43029  16.210  11.475   6.435
42549W        W43030  16.629  14.187   7.113
42550W        W43031  17.595  14.079   7.246
42551W        W43032  15.334  14.535   5.724
42552W        W43033  16.723  12.424   5.111
42553W        W43034  16.490  11.036   5.001
42554W        W43035  15.549  14.020   4.838
42555W        W43036  16.048  11.761   6.063
42556W        W43037  15.748  11.130   5.532
42557W        W43038  14.811  13.952   4.080
42558W        W43039  16.627  13.316   4.798
42559W        W43040  15.502  14.111   6.677
42560W        W43041  14.979  12.934   4.373
42561W        W43042  14.864  11.477   5.372
42562W        W43043  16.412  13.442   5.429
42563W        W43044  14.664  11.296   4.449
42564W        W43045  17.328  12.502   6.376
42565W        W43046  17.205  11.888   3.948
42566W        W43047  16.383  14.044   5.427
42567W        W43048  15.795  14.148   4.338
42568W        W43049  17.077  11.051   3.768
42569W        W43050  14.877  14.311   5.509
42570W        W43051  17.074  12.069   7.144
42571W        W43052  15.057  11.599   7.143
42572W        W43053  14.788  12.199   4.476
42573W        W43054  15.479  12.188   4.201
42574W        W43055  17.242  12.515   7.018
42575W        W43056  15.585  12.796   5.727
42576W        W43057  17.059  11.082   4.847
42577W        W43058  16.190  14.513   5.350
42578W        W43059  17.404  13.975   6.287
42579W        W43060  16.988  14.124   5.398
42580W        W43061  17.007  13.104   4.992
42581W        W43062  16.469  11.329   4.063
42582W        W43063  15.838  12.592   3.948
42583W        W43064  16.696  13.099   3.815
42584W        W43065  17.632  13.299   6.563
42585W        W43066  17.286  14.000   4.030
42586W        W43067  15.901  11.675   6.936
42587W        W43068  15.721  12.259   6.177
42588W        W43069  16.913  11.704   6.831
42589W        W43070  14.757  12.175   6.608
42590W        W43071  16.517  12.652   6.334
42591W        W43072  14.874  13.410   4.991
42592W        W43073  15.021  12.707   5.881
42593W        W43074  17.338  12.993   6.231
42594W        W43075  17.110  14.373   7.042
42595W        W43076  17.006  12.112   6.595
42596W        W43077  17.283  14.166   5.000
42597W        W43078  16.285  13.886   6.323
42598W        W43079  15.770  14.241   5.592
42599W        W43080  17.575  13.412   6.011
42600W        W43081  16.625  13.484   7.148
42601W        W43082  15.230  13.437   5.487
42602W        W43083  17.576  13.196   5.132
42603W        W43084  17.217  14.262   5.883
42604W        W43085  15.195  13.991   5.753
42605W        W43086  16.216  12.043   6.963
42606W        W43087  16.667  14.209   4.474
42607W        W43088  15.975  13.464   7.112
42608W        W43089  16.101  13.702   4.489
42609W        W43090  15.322  12.442   3.748
42610W        W43091  14.661  14.528  10.648
42611W        W43092  15.037  13.421  10.171
42612W        W43093  17.742  13.151   7.941
42613W        W43094  15.790  14.227   7.494
42614W        W43095  15.873  12.379   8.477
42615W        W43096  15.388  12.227   8.641
42616W        W43097  16.379  13.042   8.075
42617W        W43098  16.054  14.134  10.430
42618W        W43099  14.703  11.695  10.393
42619W        W43100  15.465  10.975  10.195
42620W        W43101  17.159  11.363   9.082
42621W        W43102  16.808  12.234   7.652
42622W        W43103  17.378  11.668  10.743
42623W        W43104  14.744  11.460   9.868
42624W        W43105  14.843  14.079  10.889
42625W        W43106  16.365  13.469   7.621
42626W        W43107  14.797  12.252   9.314
42627W        W43108  15.690  12.143  10.551
42628W        W43109  16.221  12.378   8.936
42629W        W43110  16.767  13.717   9.305
42630W        W43111  15.267  13.151   9.537
42631W        W43112  14.626  12.679   9.108
42632W        W43113  15.662  12.651  10.300
42633W        W43114  15.549  13.878   8.999
42634W        W43115  16.670  13.567  10.133
42635W        W43116  15.890  12.207   9.358
42636W        W43117  16.182  12.991   9.001
42637W        W43118  17.179  13.764  10.849
42638W        W43119  16.258  13.084  10.859
42639W        W43120  16.239  12.800  10.337
42640W        W43121  14.648  12.191  10.859
42641W        W43122  17.480  13.726  10.458
42642W        W43123  15.061  11.308   8.456
42643W        W43124  15.588  13.566   9.455
42644W        W43125  17.464  11.749   9.312
42645W        W43126  16.181  14.210   9.466
42646W        W43127  15.084  14.462   7.658
42647W        W43128  15.477  14.508   8.334
42648W        W43129  15.274  11.262   9.760
42649W        W43130  17.302  12.702   8.494
42650W        W43131  17.268  12.390   7.521
42651W        W43132  16.476  13.534   9.661
42652W        W43133  16.282  11.864   8.860
42653W        W43134  16.882  13.951   9.854
42654W        W43135  16.655  11.400   8.292
42655W        W43136  15.312  14.094   7.975
42656W        W43137  17.469  12.200   9.048
42657W        W43138  14.927  13.817   8.963
42658W        W43139  16.268  14.167   7.833
42659W        W43140  14.683  13.951   9.461
42660W        W43141  15.474  13.523   9.941
42661W        W43142  15.847  12.883   8.560
42662W        W43143  15.869  11.288   9.653
42663W        W43144  15.317  12.922   7.418
42664W        W43145  14.972  11.955   7.597
42665W        W43146  15.034  13.911   8.391
42666W        W43147  16.165  13.394   8.639
42667W        W43148  17.497  14.253  10.353
42668W        W43149  16.423  11.895   8.037
42669W        W43150  17.483  12.146  10.407
42670W        W43151  16.823  13.094  10.025
42671W        W43152  14.589  12.645   8.231
42672W        W43153  15.700  13.060   9.804
42673W        W43154  16.904  12.324   8.182
42674W        W43155  16.781  12.814   8.286
42675W        W43156  15.124  12.234   9.760
42676W        W43157  15.109  12.110  10.682
42677W        W43158  14.999  11.027   8.841
42678W        W43159  16.767  11.374   9.402
42679W        W43160  16.415  11.559  10.565
42680W        W43161  16.770  11.708   7.743
42681W        W43162  16.920  11.182  10.536
42682W        W43163  17.939  13.483  10.658
42683W        W43164  17.369  11.650  10.254
42684W        W43165  17.169  11.588   8.524
42685W        W43166  17.562  12.722  10.928
42686W        W43167  15.302  14.298   8.914
42687W        W43168  15.960  12.015   7.900
42688W        W43169  15.529  11.299  10.564
42689W        W43170  17.581  11.783   8.245
42690W        W43171  15.691  14.482  10.661
42691W        W43172  15.617  11.018   7.896
42692W        W43173  14.995  13.004   9.078
42693W        W43174  16.912  11.591   7.308
42694W        W43175  16.530  12.329  10.332
42695W        W43176  16.623  13.668   8.035
42696W        W43177  17.023  12.962  10.775
42697W        W43178  16.697  10.939   9.084
42698W        W43179  15.309  11.842   9.147
42699W        W43180  14.863  13.042   9.921
42700W        W43181  16.722  14.235   8.627
42701W        W43182  16.553  14.179  10.266
42702W        W43183  16.331  12.721   8.532
42703W        W43184  16.332  13.067   9.867
42704W        W43185  16.549  11.953   9.312
42705W        W43186  17.401  12.251   8.150
42706W        W43187  17.688  11.984   7.792
42707W        W43188  17.497  14.024   8.181
42708W        W43189  17.331  13.627   8.977
42709W        W43190  17.227  12.706   7.955
42710W        W43191  16.660  12.916   8.941
42711W        W43192  17.541  12.704   9.008
42712W        W43193  14.916  11.719   9.432
42713W        W43194  17.694  12.771  10.259
42714W        W43195  15.975  13.833   8.807
42715W        W43196  16.982  14.366  10.131
42716W        W43197  16.976  11.696   9.895
42717W        W43198  16.183  14.404   9.956
42718W        W43199  17.671  12.677   9.723
42719W        W43200  14.654  11.998   9.761
42720W        W43201  17.514  11.793   8.779
42721W        W43202  16.810  13.643   8.774
42722W        W43203  16.066  14.234   8.387
42723W        W43204  15.181  11.414   7.645
42724W        W43205  16.285  11.068   9.455
42725W        W43206  15.313  14.188   7.303
42726W        W43207  15.687  12.654   8.054
42727W        W43208  16.341  13.283  10.367
42728W        W43209  16.171  11.641   8.357
42729W        W43210  17.527  11.238   8.785
42730W        W43211  17.247  14.520   9.113
42731W        W43212  16.659  14.168   9.453
42732W        W43213  16.055  13.205   9.414
42733W        W43214  15.519  11.431   8.309
42734W        W43215  16.041  13.728   9.269
42735W        W43216  15.524  11.659   7.334
42736W        W43217  16.325  12.268   9.728
42737W        W43218  17.173  11.134   9.598
42738W        W43219  14.593  12.977   9.483
42739W        W43220  16.297  12.795   7.641
42740W        W43221  15.565  11.110   7.411
42741W        W43222  16.303  12.191   8.462
42742W        W43223  17.273  11.167  10.161
42743W        W43224  15.861  13.179  10.270
42744W        W43225  16.665  12.961  10.487
42745W        W43226  17.282  12.991  10.380
42746W        W43227  16.566  11.131  10.885
42747W        W43228  15.788  11.747   9.278
42748W        W43229  15.214  11.703   8.676
42749W        W43230  15.000  14.415   8.352
42750W        W43231  16.332  13.745  10.477
42751W        W43232  15.367  13.230   7.836
42752W        W43233  17.047  12.615   9.057
42753W        W43234  17.327  12.414   9.456
42754W        W43235  16.532  13.088   9.390
42755W        W43236  17.002  13.462   7.522
42756W        W43237  16.674  11.483   8.850
42757W        W43238  14.647  14.350  10.149
42758W        W43239  15.064  13.576   9.681
42759W        W43240  14.631  14.422   7.913
42760W        W43241  16.530  11.692   9.719
42761W        W43242  15.893  13.715   7.568
42762W        W43243  17.798  14.097   7.754
42763W        W43244  16.773  12.750   7.768
42764W        W43245  15.616  11.941   8.285
42765W        W43246  16.448  11.851   7.337
42766W        W43247  17.032  13.416  10.515
42767W        W43248  17.385  11.322   8.132
42768W        W43249  14.715  11.170   7.580
42769W        W43250  16.001  13.489   9.870
42770W        W43251  15.800  13.405   8.962
42771W        W43252  15.542  13.357   7.360
42772W        W43253  14.783  13.598   8.128
42773W        W43254  15.287  12.668  10.570
42774W        W43255  15.991  11.228  10.756
42775W        W43256  16.700  11.370  10.112
42776W        W43257  15.895  11.138   8.393
42777W        W43258  16.954  11.215   7.898
42778W        W43259  14.899  11.147   9.475
42779W        W43260  14.947  12.110   8.845
42780W        W43261  17.636  11.218   9.251
42781W        W43262  15.058  11.716   8.065
42782W        W43263  17.629  11.404   9.681
42783W        W43264  15.317  11.365   9.185
42784W        W43265  16.431  11.937  10.125
42785W        W43266  14.579  11.627   7.603
42786W        W43267  15.365  13.016  10.164
42787W        W43268  16.723  12.414   9.343
42788W        W43269  16.590  14.493   7.639
42789W        W43270  14.736  13.000   7.336
42790W        W43271  15.471  13.411  10.462
42791W        W43272  14.992  12.578  10.093
42792W        W43273  15.983  12.683   9.887
42793W        W43274  17.751  11.042  10.149
42794W        W43275  17.000  13.184   7.925
42795W        W43276  17.474  14.484   7.620
42796W        W43277  16.651  12.474  10.762
42797W        W43278  14.981  13.441  10.802
42798W        W43279  16.213  14.421  10.852
42799W        W43280  16.068  11.050   7.579
42800W        W43281  17.607  13.649   7.522
42801W        W43282  15.376  11.742  10.408
42802W        W43283  15.810  13.736  10.270
42803W        W43284  17.147  14.386   8.036
42804W        W43285  17.386  13.005   9.403
42805W        W43286  16.105  12.490  10.827
42806W        W43287  15.608  13.669   8.021
42807W        W43288  17.363  13.167   8.285
42808W        W43289  15.131  11.793  10.009
42809W        W43290  16.460  13.855   8.473
42810W        W43291  16.432  11.048  10.373
42811W        W43292  17.212  13.753   9.452
42812W        W43293  17.515  14.097   9.160
42813W        W43294  16.734  13.899   7.588
42814W        W43295  14.744  13.791  10.430
42815W        W43296  15.487  11.783   9.668
42816W        W43297  15.457  11.131   8.778
42817W        W43298  17.078  11.973   9.470
42818W        W43299  15.876  13.144   7.670
42819W        W43300  15.201  13.844  10.592
42820W        W43301  17.588  14.526   8.389
42821W        W43302  15.687  11.546   8.834
42822W        W43303  15.769  14.450   9.674
42823W        W43304  16.995  12.734   9.639
42824W        W43305  14.844  12.532   7.554
42825W        W43306  15.954  11.033  10.273
42826W        W43307  17.660  13.835   8.731
42827W        W43308  17.689  12.391   8.636
42828W        W43309  15.806  12.064   8.852
42829W        W43310  16.051  12.326  10.176
42830W        W43311  17.162  13.479  10.039
42831W        W43312  15.812  11.933  10.151
42832W        W43313  15.791  14.399   8.767
42833W        W43314  15.108  14.358  10.401
42834W        W43315  15.220  13.719   7.531
42835W        W43316  17.737  13.477   8.341
42836W        W43317  15.341  12.269  10.227
42837W        W43318  15.859  13.256   8.179
42838W        W43319  16.958  12.638  10.260
42839W        W43320  16.849  12.266   9.804
42840W        W43321  15.409  12.638   9.833
42841W        W43322  17.619  14.526   9.662
42842W        W43323  17.410  11.160  10.656
42843W        W43324  15.074  11.310  10.243
42844W        W43325  15.413  12.333   9.296
42845W        W43326  15.782  12.147   7.418
42846W        W43327  14.585  13.906   9.963
42847W        W43328  16.170  12.615   9.406
42848W        W43329  15.993  11.640   7.511
42849W        W43330  15.128  12.456   8.292
42850W        W43331  14.899  14.308   9.729
42851W        W43332  17.694  12.534   7.837
42852W        W43333  17.225  13.659   8.486
42853W        W43334  14.823  12.583  10.663
42854W        W43335  17.309  13.522   7.970
42855W        W43336  16.211  12.580   8.055
42856W        W43337  17.398  11.384   7.578
42857W        W43338  17.463  11.991   9.764
42858W        W43339  15.172  12.584   8.971
42859W        W43340  15.466  13.523   8.620
42860W        W43341  17.229  12.143   8.585
42861W        W43342  16.252  11.522   9.281
42862W        W43343  14.671  14.250   8.729
42863W        W43344  15.180  13.437   8.265
42864W        W43345  15.095  11.054  10.818
42865W        W43346  16.214  13.907  10.920
42866W        W43347  17.323  13.052   7.590
42867W        W43348  16.618  14.573   9.802
42868W        W43349  17.475  13.295  10.839
42869W        W43350  16.290  11.005   8.119
42870W        W43351  17.003  11.874   8.978
42871W        W43352  14.689  13.461   9.310
42872W        W43353  15.942  11.423   7.951
42873W        W43354  15.746  12.907  10.800
42874W        W43355  16.740  11.888   8.514
42875W        W43356  16.945  13.298   9.636
42876W        W43357  15.099  13.903  10.071
42877W        W43358  15.690  13.886  10.794
42878W        W43359  15.541  11.683   7.808
42879W        W43360  17.058  11.825   8.133
42880W        W43361  17.016  13.933  10.370
42881W        W43362  15.701  12.525   8.969
42882W        W43363  15.356  14.223   9.834
42883W        W43364  14.964  13.012  10.431
42884W        W43365  16.959  13.274   9.119
42885W        W43366  15.395  12.923   8.361
42886W        W43367  15.766  13.930   9.756
42887W        W43368  16.144  11.349   8.797
42888W        W43369  14.755  13.333   7.727
42889W        W43370  16.274  12.284   7.597
42890W        W43371  14.920  12.833   8.616
42891W        W43372  16.210  11.475  10.080
42892W        W43373  16.629  14.187  10.758
42893W        W43374  17.595  14.079  10.891
42894W        W43375  15.334  14.535   9.369
42895W        W43376  16.723  12.424   8.756
42896W        W43377  16.490  11.036   8.646
42897W        W43378  15.549  14.020   8.483
42898W        W43379  16.048  11.761   9.708
42899W        W43380  15.748  11.130   9.177
42900W        W43381  14.811  13.952   7.725
42901W        W43382  16.627  13.316   8.443
42902W        W43383  15.502  14.111  10.322
42903W        W43384  14.979  12.934   8.018
42904W        W43385  16.412  13.442   9.074
42905W        W43386  14.664  11.296   8.094
42906W        W43387  17.328  12.502  10.021
42907W        W43388  17.205  11.888   7.593
42908W        W43389  16.383  14.044   9.072
42909W        W43390  15.795  14.148   7.983
42910W        W43391  17.077  11.051   7.413
42911W        W43392  14.877  14.311   9.154
42912W        W43393  17.074  12.069  10.789
42913W        W43394  15.057  11.599  10.788
42914W        W43395  14.788  12.199   8.121
42915W        W43396  15.479  12.188   7.846
42916W        W43397  17.242  12.515  10.663
42917W        W43398  15.585  12.796   9.372
42918W        W43399  17.059  11.082   8.492
42919W        W43400  16.190  14.513   8.995
42920W        W43401  17.404  13.975   9.932
42921W        W43402  16.988  14.124   9.043
42922W        W43403  17.007  13.104   8.637
42923W        W43404  16.469  11.329   7.708
42924W        W43405  15.838  12.592   7.593
42925W        W43406  16.696  13.099   7.460
42926W        W43407  17.632  13.299  10.208
42927W        W43408  17.286  14.000   7.675
42928W        W43409  15.901  11.675  10.581
42929W        W43410  15.721  12.259   9.822
42930W        W43411  16.913  11.704  10.476
42931W        W43412  14.757  12.175  10.253
42932W        W43413  16.517  12.652   9.979
42933W        W43414  14.874  13.410   8.636
42934W        W43415  17.338  12.993   9.876
42935W        W43416  17.110  14.373  10.687
42936W        W43417  17.006  12.112  10.240
42937W        W43418  17.283  14.166   8.645
42938W        W43419  16.285  13.886   9.968
42939W        W43420  15.770  14.241   9.237
42940W        W43421  17.575  13.412   9.656
42941W        W43422  16.625  13.484  10.793
42942W        W43423  15.230  13.437   9.132
42943W        W43424  17.576  13.196   8.777
42944W        W43425  17.217  14.262   9.528
42945W        W43426  15.195  13.991   9.398
42946W        W43427  16.216  12.043  10.608
42947W        W43428  16.667  14.209   8.119
42948W        W43429  15.975  13.464  10.757
42949W        W43430  16.101  13.702   8.134
42950W        W43431  15.322  12.442   7.393
42951W        W43432  14.661  14.528  14.292
42952W        W43433  15.037  13.421  13.815
42953W        W43434  17.742  13.151  11.585
42954W        W43435  15.790  14.227  11.138
42955W        W43436  15.873  12.379  12.121
42956W        W43437  15.388  12.227  12.285
42957W        W43438  16.379  13.042  11.719
42958W        W43439  16.054  14.134  14.074
42959W        W43440  14.703  11.695  14.037
42960W        W43441  15.465  10.975  13.839
42961W        W43442  17.159  11.363  12.726
42962W        W43443  16.808  12.234  11.296
42963W        W43444  17.378  11.668  14.387
42964W        W43445  14.744  11.460  13.512
42965W        W43446  14.843  14.079  14.533
42966W        W43447  16.365  13.469  11.265
42967W        W43448  14.797  12.252  12.958
42968W        W43449  15.690  12.143  14.195
42969W        W43450  16.221  12.378  12.580
42970W        W43451  16.767  13.717  12.949
42971W        W43452  15.267  13.151  13.181
42972W        W43453  14.626  12.679  12.752
42973W        W43454  15.662  12.651  13.944
42974W        W43455  15.549  13.878  12.643
42975W        W43456  16.670  13.567  13.777
42976W        W43457  15.890  12.207  13.002
42977W        W43458  16.182  12.991  12.645
42978W        W43459  17.179  13.764  14.493
42979W        W43460  16.258  13.084  14.503
42980W        W43461  16.239  12.800  13.981
42981W        W43462  14.648  12.191  14.503
42982W        W43463  17.480  13.726  14.102
42983W        W43464  15.061  11.308  12.100
42984W        W43465  15.588  13.566  13.099
42985W        W43466  17.464  11.749  12.956
42986W        W43467  16.181  14.210  13.110
42987W        W43468  15.084  14.462  11.302
42988W        W43469  15.477  14.508  11.978
42989W        W43470  15.274  11.262  13.404
42990W        W43471  17.302  12.702  12.138
42991W        W43472  17.268  12.390  11.165
42992W        W43473  16.476  13.534  13.305
42993W        W43474  16.282  11.864  12.504
42994W        W43475  16.882  13.951  13.498
42995W        W43476  16.655  11.400  11.936
42996W        W43477  15.312  14.094  11.619
42997W        W43478  14.683  11.593  12.218
42998W        W43479  17.469  12.200  12.692
42999W        W43480  14.927  13.817  12.607
43000W        W43481  16.268  14.167  11.477
43001W        W43482  14.683  13.951  13.105
43002W        W43483  15.474  13.523  13.585
43003W        W43484  15.847  12.883  12.204
43004W        W43485  15.869  11.288  13.297
43005W        W43486  15.317  12.922  11.062
43006W        W43487  14.972  11.955  11.241
43007W        W43488  15.034  13.911  12.035
43008W        W43489  16.165  13.394  12.283
43009W        W43490  17.497  14.253  13.997
43010W        W43491  16.423  11.895  11.681
43011W        W43492  17.483  12.146  14.051
43012W        W43493  16.823  13.094  13.669
43013W        W43494  14.589  12.645  11.875
43014W        W43495  15.700  13.060  13.448
43015W        W43496  16.904  12.324  11.826
43016W        W43497  16.781  12.814  11.930
43017W        W43498  15.124  12.234  13.404
43018W        W43499  15.109  12.110  14.326
43019W        W43500  14.999  11.027  12.485
43020W        W43501  16.767  11.374  13.046
43021W        W43502  16.415  11.559  14.209
43022W        W43503  16.770  11.708  11.387
43023W        W43504  16.920  11.182  14.180
43024W        W43505  17.939  13.483  14.302
43025W        W43506  17.369  11.650  13.898
43026W        W43507  17.169  11.588  12.168
43027W        W43508  17.562  12.722  14.572
43028W        W43509  15.960  12.015  11.544
43029W        W43510  15.529  11.299  14.208
43030W        W43511  17.581  11.783  11.889
43031W        W43512  15.691  14.482  14.305
43032W        W43513  15.617  11.018  11.540
43033W        W43514  14.995  13.004  12.722
43034W        W43515  16.912  11.591  10.952
43035W        W43516  16.530  12.329  13.976
43036W        W43517  16.623  13.668  11.679
43037W        W43518  17.023  12.962  14.419
43038W        W43519  16.697  10.939  12.728
43039W        W43520  15.309  11.842  12.791
43040W        W43521  14.863  13.042  13.565
43041W        W43522  16.722  14.235  12.271
43042W        W43523  16.553  14.179  13.910
43043W        W43524  16.331  12.721  12.176
43044W        W43525  16.332  13.067  13.511
43045W        W43526  16.549  11.953  12.956
43046W        W43527  17.401  12.251  11.794
43047W        W43528  17.688  11.984  11.436
43048W        W43529  17.497  14.024  11.825
43049W        W43530  17.331  13.627  12.621
43050W        W43531  17.227  12.706  11.599
43051W        W43532  16.660  12.916  12.585
43052W        W43533  17.541  12.704  12.652
43053W        W43534  14.916  11.719  13.076
43054W        W43535  17.694  12.771  13.903
43055W        W43536  15.975  13.833  12.451
43056W        W43537  16.982  14.366  13.775
43057W        W43538  16.976  11.696  13.539
43058W        W43539  16.183  14.404  13.600
43059W        W43540  17.671  12.677  13.367
43060W        W43541  14.654  11.998  13.405
43061W        W43542  17.514  11.793  12.423
43062W        W43543  16.810  13.643  12.418
43063W        W43544  16.066  14.234  12.031
43064W        W43545  15.181  11.414  11.289
43065W        W43546  16.285  11.068  13.099
43066W        W43547  15.313  14.188  10.947
43067W        W43548  15.687  12.654  11.698
43068W        W43549  16.341  13.283  14.011
43069W        W43550  16.171  11.641  12.001
43070W        W43551  17.527  11.238  12.429
43071W        W43552  17.247  14.520  12.757
43072W        W43553  16.659  14.168  13.097
43073W        W43554  16.055  13.205  13.058
43074W        W43555  15.519  11.431  11.953
43075W        W43556  16.041  13.728  12.913
43076W        W43557  15.524  11.659  10.978
43077W        W43558  16.325  12.268  13.372
43078W        W43559  17.173  11.134  13.242
43079W        W43560  14.593  12.977  13.127
43080W        W43561  16.297  12.795  11.285
43081W        W43562  15.565  11.110  11.055
43082W        W43563  16.303  12.191  12.106
43083W        W43564  17.273  11.167  13.805
43084W        W43565  15.861  13.179  13.914
43085W        W43566  16.665  12.961  14.131
43086W        W43567  17.282  12.991  14.024
43087W        W43568  16.566  11.131  14.529
43088W        W43569  15.788  11.747  12.922
43089W        W43570  15.214  11.703  12.320
43090W        W43571  15.000  14.415  11.996
43091W        W43572  16.332  13.745  14.121
43092W        W43573  15.367  13.230  11.480
43093W        W43574  17.047  12.615  12.701
43094W        W43575  17.327  12.414  13.100
43095W        W43576  16.532  13.088  13.034
43096W        W43577  17.002  13.462  11.166
43097W        W43578  16.674  11.483  12.494
43098W        W43579  14.647  14.350  13.793
43099W        W43580  15.064  13.576  13.325
43100W        W43581  14.631  14.422  11.557
43101W        W43582  16.530  11.692  13.363
43102W        W43583  15.893  13.715  11.212
43103W        W43584  17.798  14.097  11.398
43104W        W43585  16.773  12.750  11.412
43105W        W43586  15.616  11.941  11.929
43106W        W43587  16.448  11.851  10.981
43107W        W43588  17.385  11.322  11.776
43108W        W43589  14.715  11.170  11.224
43109W        W43590  16.001  13.489  13.514
43110W        W43591  15.800  13.405  12.606
43111W        W43592  15.542  13.357  11.004
43112W        W43593  15.287  12.668  14.214
43113W        W43594  15.991  11.228  14.400
43114W        W43595  16.700  11.370  13.756
43115W        W43596  15.895  11.138  12.037
43116W        W43597  16.954  11.215  11.542
43117W        W43598  14.899  11.147  13.119
43118W        W43599  14.947  12.110  12.489
43119W        W43600  17.636  11.218  12.895
43120W        W43601  15.058  11.716  11.709
43121W        W43602  17.629  11.404  13.325
43122W        W43603  15.317  11.365  12.829
43123W        W43604  16.431  11.937  13.769
43124W        W43605  14.579  11.627  11.247
43125W        W43606  15.365  13.016  13.808
43126W        W43607  16.723  12.414  12.987
43127W        W43608  16.590  14.493  11.283
43128W        W43609  14.736  13.000  10.980
43129W        W43610  15.471  13.411  14.106
43130W        W43611  14.992  12.578  13.737
43131W        W43612  15.983  12.683  13.531
43132W        W43613  17.751  11.042  13.793
43133W        W43614  17.000  13.184  11.569
43134W        W43615  17.474  14.484  11.264
43135W        W43616  16.651  12.474  14.406
43136W        W43617  14.981  13.441  14.446
43137W        W43618  16.213  14.421  14.496
43138W        W43619  16.068  11.050  11.223
43139W        W43620  17.607  13.649  11.166
43140W        W43621  15.376  11.742  14.052
43141W        W43622  15.810  13.736  13.914
43142W        W43623  17.147  14.386  11.680
43143W        W43624  17.386  13.005  13.047
43144W        W43625  15.636  11.421  13.714
43145W        W43626  16.105  12.490  14.471
43146W        W43627  15.608  13.669  11.665
43147W        W43628  17.363  13.167  11.929
43148W        W43629  15.131  11.793  13.653
43149W        W43630  16.460  13.855  12.117
43150W        W43631  16.432  11.048  14.017
43151W        W43632  17.212  13.753  13.096
43152W        W43633  17.515  14.097  12.804
43153W        W43634  16.734  13.899  11.232
43154W        W43635  14.744  13.791  14.074
43155W        W43636  15.487  11.783  13.312
43156W        W43637  15.457  11.131  12.422
43157W        W43638  17.078  11.973  13.114
43158W        W43639  15.201  13.844  14.236
43159W        W43640  17.588  14.526  12.033
43160W        W43641  15.687  11.546  12.478
43161W        W43642  15.456  13.039  12.568
43162W        W43643  15.769  14.450  13.318
43163W        W43644  16.995  12.734  13.283
43164W        W43645  14.844  12.532  11.198
43165W        W43646  15.954  11.033  13.917
43166W        W43647  17.660  13.835  12.375
43167W        W43648  17.689  12.391  12.280
43168W        W43649  15.806  12.064  12.496
43169W        W43650  16.051  12.326  13.820
43170W        W43651  17.162  13.479  13.683
43171W        W43652  15.812  11.933  13.795
43172W        W43653  15.791  14.399  12.411
43173W        W43654  15.108  14.358  14.045
43174W        W43655  15.220  13.719  11.175
43175W        W43656  17.737  13.477  11.985
43176W        W43657  15.341  12.269  13.871
43177W        W43658  15.859  13.256  11.823
43178W        W43659  16.958  12.638  13.904
43179W        W43660  16.849  12.266  13.448
43180W        W43661  15.409  12.638  13.477
43181W        W43662  17.619  14.526  13.306
43182W        W43663  17.410  11.160  14.300
43183W        W43664  15.074  11.310  13.887
43184W        W43665  15.413  12.333  12.940
43185W        W43666  15.782  12.147  11.062
43186W        W43667  14.585  13.906  13.607
43187W        W43668  16.170  12.615  13.050
43188W        W43669  15.993  11.640  11.155
43189W        W43670  15.128  12.456  11.936
43190W        W43671  14.899  14.308  13.373
43191W        W43672  17.694  12.534  11.481
43192W        W43673  17.225  13.659  12.130
43193W        W43674  14.823  12.583  14.307
43194W        W43675  17.309  13.522  11.614
43195W        W43676  16.211  12.580  11.699
43196W        W43677  17.398  11.384  11.222
43197W        W43678  17.463  11.991  13.408
43198W        W43679  15.172  12.584  12.615
43199W        W43680  15.466  13.523  12.264
43200W        W43681  17.229  12.143  12.229
43201W        W43682  16.252  11.522  12.925
43202W        W43683  14.671  14.250  12.373
43203W        W43684  15.180  13.437  11.909
43204W        W43685  15.095  11.054  14.462
43205W        W43686  16.214  13.907  14.564
43206W        W43687  17.323  13.052  11.234
43207W        W43688  16.618  14.573  13.446
43208W        W43689  17.475  13.295  14.483
43209W        W43690  16.290  11.005  11.763
43210W        W43691  17.003  11.874  12.622
43211W        W43692  14.689  13.461  12.954
43212W        W43693  15.942  11.423  11.595
43213W        W43694  15.746  12.907  14.444
43214W        W43695  16.740  11.888  12.158
43215W        W43696  16.945  13.298  13.280
43216W        W43697  15.099  13.903  13.715
43217W        W43698  15.690  13.886  14.438
43218W        W43699  15.541  11.683  11.452
43219W        W43700  17.058  11.825  11.777
43220W        W43701  17.016  13.933  14.014
43221W        W43702  15.701  12.525  12.613
43222W        W43703  15.356  14.223  13.478
43223W        W43704  14.964  13.012  14.075
43224W        W43705  16.959  13.274  12.763
43225W        W43706  15.395  12.923  12.005
43226W        W43707  15.766  13.930  13.400
43227W        W43708  16.144  11.349  12.441
43228W        W43709  14.755  13.333  11.371
43229W        W43710  16.274  12.284  11.241
43230W        W43711  14.920  12.833  12.260
43231W        W43712  16.210  11.475  13.724
43232W        W43713  16.629  14.187  14.402
43233W        W43714  17.595  14.079  14.535
43234W        W43715  15.334  14.535  13.013
43235W        W43716  16.723  12.424  12.400
43236W        W43717  16.490  11.036  12.290
43237W        W43718  15.549  14.020  12.127
43238W        W43719  16.048  11.761  13.352
43239W        W43720  15.748  11.130  12.821
43240W        W43721  14.811  13.952  11.369
43241W        W43722  16.627  13.316  12.087
43242W        W43723  15.502  14.111  13.966
43243W        W43724  14.979  12.934  11.662
43244W        W43725  14.864  11.477  12.661
43245W        W43726  16.412  13.442  12.718
43246W        W43727  14.664  11.296  11.738
43247W        W43728  17.328  12.502  13.665
43248W        W43729  17.205  11.888  11.237
43249W        W43730  16.383  14.044  12.716
43250W        W43731  15.795  14.148  11.627
43251W        W43732  17.077  11.051  11.057
43252W        W43733  14.877  14.311  12.798
43253W        W43734  17.074  12.069  14.433
43254W        W43735  15.057  11.599  14.432
43255W        W43736  14.788  12.199  11.765
43256W        W43737  15.479  12.188  11.490
43257W        W43738  17.242  12.515  14.307
43258W        W43739  15.585  12.796  13.016
43259W        W43740  17.059  11.082  12.136
43260W        W43741  16.190  14.513  12.639
43261W        W43742  17.404  13.975  13.576
43262W        W43743  16.988  14.124  12.687
43263W        W43744  17.007  13.104  12.281
43264W        W43745  16.469  11.329  11.352
43265W        W43746  15.838  12.592  11.237
43266W        W43747  16.696  13.099  11.104
43267W        W43748  17.632  13.299  13.852
43268W        W43749  17.286  14.000  11.319
43269W        W43750  15.901  11.675  14.225
43270W        W43751  15.721  12.259  13.466
43271W        W43752  16.913  11.704  14.120
43272W        W43753  14.757  12.175  13.897
43273W        W43754  16.517  12.652  13.623
43274W        W43755  14.874  13.410  12.280
43275W        W43756  17.338  12.993  13.520
43276W        W43757  17.110  14.373  14.331
43277W        W43758  17.006  12.112  13.884
43278W        W43759  17.283  14.166  12.289
43279W        W43760  16.285  13.886  13.612
43280W        W43761  15.770  14.241  12.881
43281W        W43762  17.575  13.412  13.300
43282W        W43763  16.625  13.484  14.437
43283W        W43764  15.230  13.437  12.776
43284W        W43765  17.576  13.196  12.421
43285W        W43766  17.217  14.262  13.172
43286W        W43767  15.195  13.991  13.042
43287W        W43768  16.216  12.043  14.252
43288W        W43769  16.667  14.209  11.763
43289W        W43770  15.975  13.464  14.401
43290W        W43771  16.101  13.702  11.778
43291W        W43772  15.322  12.442  11.037
43292W        W43773  17.742  13.151  15.229
43293W        W43774  15.790  14.227  14.782
43294W        W43775  15.873  12.379  15.765
43295W        W43776  15.388  12.227  15.929
43296W        W43777  16.379  13.042  15.363
43297W        W43778  16.054  14.134  17.718
43298W        W43779  14.703  11.695  17.681
43299W        W43780  15.465  10.975  17.483
43300W        W43781  17.159  11.363  16.370
43301W        W43782  16.808  12.234  14.940
43302W        W43783  14.744  11.460  17.156
43303W        W43784  16.365  13.469  14.909
43304W        W43785  14.797  12.252  16.602
43305W        W43786  16.221  12.378  16.224
43306W        W43787  16.767  13.717  16.593
43307W        W43788  15.267  13.151  16.825
43308W        W43789  14.626  12.679  16.396
43309W        W43790  15.662  12.651  17.588
43310W        W43791  15.549  13.878  16.287
43311W        W43792  16.670  13.567  17.421
43312W        W43793  15.890  12.207  16.646
43313W        W43794  16.182  12.991  16.289
43314W        W43795  16.239  12.800  17.625
43315W        W43796  17.480  13.726  17.746
43316W        W43797  15.061  11.308  15.744
43317W        W43798  15.588  13.566  16.743
43318W        W43799  17.464  11.749  16.600
43319W        W43800  16.181  14.210  16.754
43320W        W43801  15.084  14.462  14.946
43321W        W43802  15.477  14.508  15.622
43322W        W43803  15.274  11.262  17.048
43323W        W43804  17.302  12.702  15.782
43324W        W43805  17.268  12.390  14.809
43325W        W43806  16.476  13.534  16.949
43326W        W43807  16.282  11.864  16.148
43327W        W43808  16.882  13.951  17.142
43328W        W43809  16.655  11.400  15.580
43329W        W43810  15.312  14.094  15.263
43330W        W43811  14.683  11.593  15.862
43331W        W43812  17.469  12.200  16.336
43332W        W43813  14.927  13.817  16.251
43333W        W43814  16.268  14.167  15.121
43334W        W43815  14.683  13.951  16.749
43335W        W43816  15.474  13.523  17.229
43336W        W43817  15.847  12.883  15.848
43337W        W43818  15.869  11.288  16.941
43338W        W43819  15.317  12.922  14.706
43339W        W43820  14.972  11.955  14.885
43340W        W43821  15.034  13.911  15.679
43341W        W43822  16.165  13.394  15.927
43342W        W43823  17.497  14.253  17.641
43343W        W43824  16.423  11.895  15.325
43344W        W43825  16.823  13.094  17.313
43345W        W43826  14.589  12.645  15.519
43346W        W43827  15.700  13.060  17.092
43347W        W43828  16.904  12.324  15.470
43348W        W43829  16.781  12.814  15.574
43349W        W43830  15.124  12.234  17.048
43350W        W43831  14.999  11.027  16.129
43351W        W43832  16.767  11.374  16.690
43352W        W43833  16.770  11.708  15.031
43353W        W43834  16.920  11.182  17.824
43354W        W43835  17.939  13.483  17.946
43355W        W43836  17.369  11.650  17.542
43356W        W43837  17.169  11.588  15.812
43357W        W43838  15.302  14.298  16.202
43358W        W43839  15.960  12.015  15.188
43359W        W43840  17.581  11.783  15.533
43360W        W43841  15.617  11.018  15.184
43361W        W43842  14.995  13.004  16.366
43362W        W43843  16.912  11.591  14.596
43363W        W43844  16.530  12.329  17.620
43364W        W43845  16.623  13.668  15.323
43365W        W43846  16.697  10.939  16.372
43366W        W43847  15.309  11.842  16.435
43367W        W43848  14.863  13.042  17.209
43368W        W43849  16.722  14.235  15.915
43369W        W43850  16.553  14.179  17.554
43370W        W43851  16.331  12.721  15.820
43371W        W43852  16.332  13.067  17.155
43372W        W43853  16.549  11.953  16.600
43373W        W43854  17.401  12.251  15.438
43374W        W43855  17.688  11.984  15.080
43375W        W43856  17.497  14.024  15.469
43376W        W43857  17.331  13.627  16.265
43377W        W43858  17.227  12.706  15.243
43378W        W43859  16.660  12.916  16.229
43379W        W43860  17.541  12.704  16.296
43380W        W43861  14.916  11.719  16.720
43381W        W43862  17.694  12.771  17.547
43382W        W43863  15.975  13.833  16.095
43383W        W43864  16.982  14.366  17.419
43384W        W43865  16.976  11.696  17.183
43385W        W43866  16.183  14.404  17.244
43386W        W43867  17.671  12.677  17.011
43387W        W43868  14.654  11.998  17.049
43388W        W43869  17.514  11.793  16.067
43389W        W43870  16.066  14.234  15.675
43390W        W43871  15.181  11.414  14.933
43391W        W43872  16.285  11.068  16.743
43392W        W43873  15.313  14.188  14.591
43393W        W43874  15.687  12.654  15.342
43394W        W43875  16.341  13.283  17.655
43395W        W43876  16.171  11.641  15.645
43396W        W43877  17.527  11.238  16.073
43397W        W43878  17.247  14.520  16.401
43398W        W43879  16.659  14.168  16.741
43399W        W43880  16.055  13.205  16.702
43400W        W43881  15.519  11.431  15.597
43401W        W43882  16.041  13.728  16.557
43402W        W43883  15.524  11.659  14.622
43403W        W43884  16.325  12.268  17.016
43404W        W43885  17.173  11.134  16.886
43405W        W43886  14.593  12.977  16.771
43406W        W43887  16.297  12.795  14.929
43407W        W43888  15.565  11.110  14.699
43408W        W43889  16.303  12.191  15.750
43409W        W43890  17.273  11.167  17.449
43410W        W43891  15.861  13.179  17.558
43411W        W43892  17.282  12.991  17.668
43412W        W43893  15.788  11.747  16.566
43413W        W43894  15.214  11.703  15.964
43414W        W43895  15.000  14.415  15.640
43415W        W43896  16.332  13.745  17.765
43416W        W43897  15.367  13.230  15.124
43417W        W43898  17.047  12.615  16.345
43418W        W43899  17.327  12.414  16.744
43419W        W43900  16.532  13.088  16.678
43420W        W43901  17.002  13.462  14.810
43421W        W43902  16.674  11.483  16.138
43422W        W43903  14.647  14.350  17.437
43423W        W43904  15.064  13.576  16.969
43424W        W43905  14.631  14.422  15.201
43425W        W43906  16.530  11.692  17.007
43426W        W43907  15.893  13.715  14.856
43427W        W43908  17.798  14.097  15.042
43428W        W43909  16.773  12.750  15.056
43429W        W43910  15.616  11.941  15.573
43430W        W43911  16.448  11.851  14.625
43431W        W43912  17.385  11.322  15.420
43432W        W43913  14.715  11.170  14.868
43433W        W43914  16.001  13.489  17.158
43434W        W43915  15.800  13.405  16.250
43435W        W43916  15.542  13.357  14.648
43436W        W43917  14.783  13.598  15.416
43437W        W43918  16.700  11.370  17.400
43438W        W43919  15.895  11.138  15.681
43439W        W43920  16.954  11.215  15.186
43440W        W43921  14.899  11.147  16.763
43441W        W43922  14.947  12.110  16.133
43442W        W43923  17.636  11.218  16.539
43443W        W43924  15.058  11.716  15.353
43444W        W43925  17.629  11.404  16.969
43445W        W43926  15.317  11.365  16.473
43446W        W43927  16.431  11.937  17.413
43447W        W43928  14.579  11.627  14.891
43448W        W43929  15.365  13.016  17.452
43449W        W43930  16.723  12.414  16.631
43450W        W43931  16.590  14.493  14.927
43451W        W43932  14.736  13.000  14.624
43452W        W43933  14.992  12.578  17.381
43453W        W43934  15.983  12.683  17.175
43454W        W43935  17.751  11.042  17.437
43455W        W43936  17.000  13.184  15.213
43456W        W43937  17.474  14.484  14.908
43457W        W43938  16.068  11.050  14.867
43458W        W43939  17.607  13.649  14.810
43459W        W43940  15.810  13.736  17.558
43460W        W43941  17.147  14.386  15.324
43461W        W43942  15.636  11.421  17.358
43462W        W43943  15.608  13.669  15.309
43463W        W43944  17.363  13.167  15.573
43464W        W43945  15.131  11.793  17.297
43465W        W43946  16.460  13.855  15.761
43466W        W43947  16.432  11.048  17.661
43467W        W43948  17.212  13.753  16.740
43468W        W43949  17.515  14.097  16.448
43469W        W43950  16.734  13.899  14.876
43470W        W43951  14.744  13.791  17.718
43471W        W43952  15.487  11.783  16.956
43472W        W43953  15.457  11.131  16.066
43473W        W43954  17.078  11.973  16.758
43474W        W43955  15.876  13.144  14.958
43475W        W43956  17.588  14.526  15.677
43476W        W43957  15.687  11.546  16.122
43477W        W43958  15.456  13.039  16.212
43478W        W43959  15.769  14.450  16.962
43479W        W43960  16.995  12.734  16.927
43480W        W43961  14.844  12.532  14.842
43481W        W43962  15.954  11.033  17.561
43482W        W43963  17.660  13.835  16.019
43483W        W43964  17.689  12.391  15.924
43484W        W43965  15.806  12.064  16.140
43485W        W43966  16.051  12.326  17.464
43486W        W43967  17.162  13.479  17.327
43487W        W43968  15.812  11.933  17.439
43488W        W43969  15.791  14.399  16.055
43489W        W43970  15.220  13.719  14.819
43490W        W43971  17.737  13.477  15.629
43491W        W43972  15.341  12.269  17.515
43492W        W43973  15.859  13.256  15.467
43493W        W43974  16.958  12.638  17.548
43494W        W43975  16.849  12.266  17.092
43495W        W43976  15.409  12.638  17.121
43496W        W43977  17.619  14.526  16.950
43497W        W43978  15.074  11.310  17.531
43498W        W43979  15.413  12.333  16.584
43499W        W43980  15.782  12.147  14.706
43500W        W43981  14.585  13.906  17.251
43501W        W43982  16.170  12.615  16.694
43502W        W43983  15.993  11.640  14.799
43503W        W43984  15.128  12.456  15.580
43504W        W43985  14.899  14.308  17.017
43505W        W43986  17.694  12.534  15.125
43506W        W43987  17.225  13.659  15.774
43507W        W43988  17.309  13.522  15.258
43508W        W43989  16.211  12.580  15.343
43509W        W43990  17.398  11.384  14.866
43510W        W43991  17.463  11.991  17.052
43511W        W43992  15.172  12.584  16.259
43512W        W43993  15.466  13.523  15.908
43513W        W43994  17.229  12.143  15.873
43514W        W43995  16.252  11.522  16.569
43515W        W43996  14.671  14.250  16.017
43516W        W43997  15.180  13.437  15.553
43517W        W43998  17.323  13.052  14.878
43518W        W43999  16.618  14.573  17.090
43519W        W44000  16.290  11.005  15.407
43520W        W44001  17.003  11.874  16.266
43521W        W44002  14.689  13.461  16.598
43522W        W44003  15.942  11.423  15.239
43523W        W44004  16.740  11.888  15.802
43524W        W44005  16.945  13.298  16.924
43525W        W44006  15.099  13.903  17.359
43526W        W44007  15.541  11.683  15.096
43527W        W44008  17.058  11.825  15.421
43528W        W44009  17.016  13.933  17.658
43529W        W44010  15.701  12.525  16.257
43530W        W44011  15.356  14.223  17.122
43531W        W44012  16.959  13.274  16.407
43532W        W44013  15.395  12.923  15.649
43533W        W44014  15.766  13.930  17.044
43534W        W44015  16.144  11.349  16.085
43535W        W44016  14.755  13.333  15.015
43536W        W44017  16.274  12.284  14.885
43537W        W44018  14.920  12.833  15.904
43538W        W44019  16.210  11.475  17.368
43539W        W44020  15.334  14.535  16.657
43540W        W44021  16.723  12.424  16.044
43541W        W44022  16.490  11.036  15.934
43542W        W44023  15.549  14.020  15.771
43543W        W44024  16.048  11.761  16.996
43544W        W44025  15.748  11.130  16.465
43545W        W44026  14.811  13.952  15.013
43546W        W44027  16.627  13.316  15.731
43547W        W44028  15.502  14.111  17.610
43548W        W44029  14.979  12.934  15.306
43549W        W44030  14.864  11.477  16.305
43550W        W44031  16.412  13.442  16.362
43551W        W44032  14.664  11.296  15.382
43552W        W44033  17.328  12.502  17.309
43553W        W44034  17.205  11.888  14.881
43554W        W44035  16.383  14.044  16.360
43555W        W44036  15.795  14.148  15.271
43556W        W44037  17.077  11.051  14.701
43557W        W44038  14.877  14.311  16.442
43558W        W44039  14.788  12.199  15.409
43559W        W44040  15.479  12.188  15.134
43560W        W44041  15.585  12.796  16.660
43561W        W44042  17.059  11.082  15.780
43562W        W44043  16.190  14.513  16.283
43563W        W44044  17.404  13.975  17.220
43564W        W44045  16.988  14.124  16.331
43565W        W44046  17.007  13.104  15.925
43566W        W44047  16.469  11.329  14.996
43567W        W44048  15.838  12.592  14.881
43568W        W44049  16.696  13.099  14.748
43569W        W44050  17.632  13.299  17.496
43570W        W44051  17.286  14.000  14.963
43571W        W44052  15.721  12.259  17.110
43572W        W44053  14.757  12.175  17.541
43573W        W44054  16.517  12.652  17.267
43574W        W44055  14.874  13.410  15.924
43575W        W44056  15.021  12.707  16.814
43576W        W44057  17.338  12.993  17.164
43577W        W44058  17.110  14.373  17.975
43578W        W44059  17.006  12.112  17.528
43579W        W44060  17.283  14.166  15.933
43580W        W44061  16.285  13.886  17.256
43581W        W44062  15.770  14.241  16.525
43582W        W44063  17.575  13.412  16.944
43583W        W44064  15.230  13.437  16.420
43584W        W44065  17.576  13.196  16.065
43585W        W44066  17.217  14.262  16.816
43586W        W44067  15.195  13.991  16.686
43587W        W44068  16.667  14.209  15.407
43588W        W44069  16.101  13.702  15.422
43589W        W44070  15.322  12.442  14.681
43590W        W44071  15.037  17.065   2.882
43591W        W44072  17.742  16.795   0.652
43592W        W44073  15.873  16.023   1.188
43593W        W44074  15.388  15.871   1.352
43594W        W44075  16.379  16.686   0.786
43595W        W44076  14.703  15.339   3.104
43596W        W44077  15.465  14.619   2.906
43597W        W44078  17.159  15.007   1.793
43598W        W44079  16.808  15.878   0.363
43599W        W44080  17.378  15.312   3.454
43600W        W44081  14.744  15.104   2.579
43601W        W44082  14.843  17.723   3.600
43602W        W44083  16.365  17.113   0.332
43603W        W44084  14.797  15.896   2.025
43604W        W44085  15.690  15.787   3.262
43605W        W44086  16.221  16.022   1.647
43606W        W44087  16.767  17.361   2.016
43607W        W44088  15.267  16.795   2.248
43608W        W44089  14.626  16.323   1.819
43609W        W44090  15.662  16.295   3.011
43610W        W44091  15.549  17.522   1.710
43611W        W44092  16.670  17.211   2.844
43612W        W44093  15.890  15.851   2.069
43613W        W44094  16.182  16.635   1.712
43614W        W44095  17.179  17.408   3.560
43615W        W44096  16.258  16.728   3.570
43616W        W44097  16.239  16.444   3.048
43617W        W44098  14.648  15.835   3.570
43618W        W44099  17.480  17.370   3.169
43619W        W44100  15.061  14.952   1.167
43620W        W44101  15.588  17.210   2.166
43621W        W44102  17.464  15.393   2.023
43622W        W44103  15.274  14.906   2.471
43623W        W44104  17.302  16.346   1.205
43624W        W44105  17.268  16.034   0.232
43625W        W44106  16.476  17.178   2.372
43626W        W44107  16.282  15.508   1.571
43627W        W44108  16.882  17.595   2.565
43628W        W44109  16.655  15.044   1.003
43629W        W44110  15.312  17.738   0.686
43630W        W44111  14.683  15.237   1.285
43631W        W44112  17.469  15.844   1.759
43632W        W44113  14.927  17.461   1.674
43633W        W44114  17.660  15.837   0.008
43634W        W44115  14.683  17.595   2.172
43635W        W44116  15.474  17.167   2.652
43636W        W44117  15.847  16.527   1.271
43637W        W44118  15.869  14.932   2.364
43638W        W44119  15.317  16.566   0.129
43639W        W44120  14.972  15.599   0.308
43640W        W44121  15.034  17.555   1.102
43641W        W44122  16.165  17.038   1.350
43642W        W44123  17.497  17.897   3.064
43643W        W44124  16.423  15.539   0.748
43644W        W44125  17.806  17.937   1.520
43645W        W44126  17.483  15.790   3.118
43646W        W44127  16.823  16.738   2.736
43647W        W44128  14.589  16.289   0.942
43648W        W44129  15.700  16.704   2.515
43649W        W44130  16.904  15.968   0.893
43650W        W44131  16.781  16.458   0.997
43651W        W44132  15.124  15.878   2.471
43652W        W44133  15.109  15.754   3.393
43653W        W44134  14.999  14.671   1.552
43654W        W44135  16.767  15.018   2.113
43655W        W44136  16.415  15.203   3.276
43656W        W44137  16.770  15.352   0.454
43657W        W44138  16.920  14.826   3.247
43658W        W44139  17.939  17.127   3.369
43659W        W44140  17.369  15.294   2.965
43660W        W44141  17.169  15.232   1.235
43661W        W44142  17.562  16.366   3.639
43662W        W44143  15.960  15.659   0.611
43663W        W44144  15.529  14.943   3.275
43664W        W44145  17.581  15.427   0.956
43665W        W44146  15.617  14.662   0.607
43666W        W44147  14.995  16.648   1.789
43667W        W44148  16.912  15.235   0.019
43668W        W44149  16.530  15.973   3.043
43669W        W44150  16.623  17.312   0.746
43670W        W44151  17.023  16.606   3.486
43671W        W44152  16.697  14.583   1.795
43672W        W44153  15.309  15.486   1.858
43673W        W44154  14.863  16.686   2.632
43674W        W44155  16.331  16.365   1.243
43675W        W44156  16.332  16.711   2.578
43676W        W44157  16.549  15.597   2.023
43677W        W44158  17.401  15.895   0.861
43678W        W44159  17.688  15.628   0.503
43679W        W44160  17.497  17.668   0.892
43680W        W44161  17.227  16.350   0.666
43681W        W44162  16.660  16.560   1.652
43682W        W44163  17.541  16.348   1.719
43683W        W44164  14.916  15.363   2.143
43684W        W44165  17.694  16.415   2.970
43685W        W44166  15.975  17.477   1.518
43686W        W44167  16.976  15.340   2.606
43687W        W44168  17.671  16.321   2.434
43688W        W44169  14.654  15.642   2.472
43689W        W44170  17.514  15.437   1.490
43690W        W44171  16.810  17.287   1.485
43691W        W44172  15.181  15.058   0.356
43692W        W44173  16.285  14.712   2.166
43693W        W44174  15.313  17.832   0.014
43694W        W44175  15.687  16.298   0.765
43695W        W44176  16.341  16.927   3.078
43696W        W44177  16.171  15.285   1.068
43697W        W44178  17.527  14.882   1.496
43698W        W44179  16.055  16.849   2.125
43699W        W44180  15.519  15.075   1.020
43700W        W44181  16.041  17.372   1.980
43701W        W44182  15.524  15.303   0.045
43702W        W44183  16.325  15.912   2.439
43703W        W44184  17.173  14.778   2.309
43704W        W44185  14.593  16.621   2.194
43705W        W44186  16.297  16.439   0.352
43706W        W44187  15.565  14.754   0.122
43707W        W44188  16.303  15.835   1.173
43708W        W44189  17.273  14.811   2.872
43709W        W44190  15.861  16.823   2.981
43710W        W44191  16.665  16.605   3.198
43711W        W44192  17.282  16.635   3.091
43712W        W44193  16.566  14.775   3.596
43713W        W44194  15.788  15.391   1.989
43714W        W44195  15.214  15.347   1.387
43715W        W44196  16.332  17.389   3.188
43716W        W44197  15.367  16.874   0.547
43717W        W44198  17.047  16.259   1.768
43718W        W44199  17.327  16.058   2.167
43719W        W44200  16.532  16.732   2.101
43720W        W44201  17.002  17.106   0.233
43721W        W44202  16.674  15.127   1.561
43722W        W44203  15.064  17.220   2.392
43723W        W44204  16.530  15.336   2.430
43724W        W44205  15.893  17.359   0.279
43725W        W44206  17.798  17.741   0.465
43726W        W44207  16.773  16.394   0.479
43727W        W44208  15.616  15.585   0.996
43728W        W44209  16.448  15.495   0.048
43729W        W44210  17.032  17.060   3.226
43730W        W44211  17.385  14.966   0.843
43731W        W44212  14.715  14.814   0.291
43732W        W44213  16.001  17.133   2.581
43733W        W44214  15.800  17.049   1.673
43734W        W44215  15.542  17.001   0.071
43735W        W44216  15.287  16.312   3.281
43736W        W44217  15.991  14.872   3.467
43737W        W44218  16.700  15.014   2.823
43738W        W44219  15.895  14.782   1.104
43739W        W44220  16.954  14.859   0.609
43740W        W44221  14.899  14.791   2.186
43741W        W44222  14.947  15.754   1.556
43742W        W44223  17.636  14.862   1.962
43743W        W44224  15.058  15.360   0.776
43744W        W44225  17.629  15.048   2.392
43745W        W44226  15.317  15.009   1.896
43746W        W44227  16.431  15.581   2.836
43747W        W44228  14.579  15.271   0.314
43748W        W44229  15.365  16.660   2.875
43749W        W44230  16.723  16.058   2.054
43750W        W44231  14.736  16.644   0.047
43751W        W44232  15.471  17.055   3.173
43752W        W44233  14.992  16.222   2.804
43753W        W44234  15.983  16.327   2.598
43754W        W44235  17.751  14.686   2.860
43755W        W44236  17.000  16.828   0.636
43756W        W44237  16.651  16.118   3.473
43757W        W44238  14.981  17.085   3.513
43758W        W44239  16.068  14.694   0.290
43759W        W44240  17.607  17.293   0.233
43760W        W44241  15.376  15.386   3.119
43761W        W44242  15.810  17.380   2.981
43762W        W44243  17.386  16.649   2.114
43763W        W44244  15.636  15.065   2.781
43764W        W44245  16.105  16.134   3.538
43765W        W44246  15.608  17.313   0.732
43766W        W44247  15.131  15.437   2.720
43767W        W44248  16.460  17.499   1.184
43768W        W44249  16.432  14.692   3.084
43769W        W44250  17.212  17.397   2.163
43770W        W44251  17.515  17.741   1.871
43771W        W44252  16.734  17.543   0.299
43772W        W44253  14.744  17.435   3.141
43773W        W44254  15.487  15.427   2.379
43774W        W44255  15.457  14.775   1.489
43775W        W44256  17.078  15.617   2.181
43776W        W44257  15.876  16.788   0.381
43777W        W44258  15.201  17.488   3.303
43778W        W44259  15.687  15.190   1.545
43779W        W44260  15.456  16.683   1.635
43780W        W44261  16.995  16.378   2.350
43781W        W44262  14.844  16.176   0.265
43782W        W44263  15.954  14.677   2.984
43783W        W44264  17.660  17.479   1.442
43784W        W44265  17.689  16.035   1.347
43785W        W44266  15.806  15.708   1.563
43786W        W44267  16.051  15.970   2.887
43787W        W44268  17.162  17.123   2.750
43788W        W44269  15.812  15.577   2.862
43789W        W44270  15.220  17.363   0.242
43790W        W44271  17.737  17.121   1.052
43791W        W44272  15.341  15.913   2.938
43792W        W44273  15.859  16.900   0.890
43793W        W44274  16.958  16.282   2.971
43794W        W44275  16.849  15.910   2.515
43795W        W44276  15.409  16.282   2.544
43796W        W44277  17.410  14.804   3.367
43797W        W44278  15.074  14.954   2.954
43798W        W44279  15.413  15.977   2.007
43799W        W44280  15.782  15.791   0.129
43800W        W44281  14.585  17.550   2.674
43801W        W44282  16.170  16.259   2.117
43802W        W44283  15.993  15.284   0.222
43803W        W44284  17.694  16.178   0.548
43804W        W44285  17.225  17.303   1.197
43805W        W44286  14.823  16.227   3.374
43806W        W44287  17.309  17.166   0.681
43807W        W44288  16.211  16.224   0.766
43808W        W44289  17.398  15.028   0.289
43809W        W44290  17.463  15.635   2.475
43810W        W44291  15.172  16.228   1.682
43811W        W44292  15.466  17.167   1.331
43812W        W44293  17.229  15.787   1.296
43813W        W44294  16.252  15.166   1.992
43814W        W44295  15.180  17.081   0.976
43815W        W44296  15.095  14.698   3.529
43816W        W44297  16.214  17.551   3.631
43817W        W44298  17.323  16.696   0.301
43818W        W44299  17.475  16.939   3.550
43819W        W44300  16.290  14.649   0.830
43820W        W44301  17.003  15.518   1.689
43821W        W44302  14.689  17.105   2.021
43822W        W44303  15.942  15.067   0.662
43823W        W44304  15.746  16.551   3.511
43824W        W44305  16.740  15.532   1.225
43825W        W44306  16.945  16.942   2.347
43826W        W44307  15.099  17.547   2.782
43827W        W44308  15.690  17.530   3.505
43828W        W44309  15.541  15.327   0.519
43829W        W44310  17.058  15.469   0.844
43830W        W44311  17.016  17.577   3.081
43831W        W44312  15.701  16.169   1.680
43832W        W44313  14.964  16.656   3.142
43833W        W44314  16.959  16.918   1.830
43834W        W44315  15.395  16.567   1.072
43835W        W44316  15.766  17.574   2.467
43836W        W44317  16.144  14.993   1.508
43837W        W44318  14.755  16.977   0.438
43838W        W44319  16.274  15.928   0.308
43839W        W44320  14.920  16.477   1.327
43840W        W44321  16.210  15.119   2.791
43841W        W44322  17.595  17.723   3.602
43842W        W44323  16.723  16.068   1.467
43843W        W44324  16.490  14.680   1.357
43844W        W44325  15.549  17.664   1.194
43845W        W44326  16.048  15.405   2.419
43846W        W44327  15.748  14.774   1.888
43847W        W44328  14.811  17.596   0.436
43848W        W44329  16.627  16.960   1.154
43849W        W44330  14.979  16.578   0.729
43850W        W44331  14.864  15.121   1.728
43851W        W44332  16.412  17.086   1.785
43852W        W44333  14.664  14.940   0.805
43853W        W44334  17.328  16.146   2.732
43854W        W44335  17.205  15.532   0.304
43855W        W44336  16.383  17.688   1.783
43856W        W44337  17.074  15.713   3.500
43857W        W44338  15.057  15.243   3.499
43858W        W44339  15.479  15.832   0.557
43859W        W44340  17.242  16.159   3.374
43860W        W44341  15.585  16.440   2.083
43861W        W44342  17.059  14.726   1.203
43862W        W44343  17.404  17.619   2.643
43863W        W44344  17.007  16.748   1.348
43864W        W44345  16.469  14.973   0.419
43865W        W44346  15.838  16.236   0.304
43866W        W44347  16.696  16.743   0.171
43867W        W44348  17.632  16.943   2.919
43868W        W44349  17.286  17.644   0.386
43869W        W44350  15.901  15.319   3.292
43870W        W44351  15.721  15.903   2.533
43871W        W44352  16.913  15.348   3.187
43872W        W44353  14.757  15.819   2.964
43873W        W44354  16.517  16.296   2.690
43874W        W44355  14.874  17.054   1.347
43875W        W44356  15.021  16.351   2.237
43876W        W44357  17.338  16.637   2.587
43877W        W44358  17.006  15.756   2.951
43878W        W44359  16.285  17.530   2.679
43879W        W44360  17.575  17.056   2.367
43880W        W44361  16.625  17.128   3.504
43881W        W44362  15.230  17.081   1.843
43882W        W44363  17.576  16.840   1.488
43883W        W44364  15.195  17.635   2.109
43884W        W44365  16.216  15.687   3.319
43885W        W44366  15.975  17.108   3.468
43886W        W44367  16.101  17.346   0.845
43887W        W44368  15.322  16.086   0.104
43888W        W44369  15.037  17.065   6.526
43889W        W44370  17.742  16.795   4.296
43890W        W44371  15.873  16.023   4.832
43891W        W44372  15.388  15.871   4.996
43892W        W44373  16.379  16.686   4.430
43893W        W44374  14.703  15.339   6.748
43894W        W44375  15.465  14.619   6.550
43895W        W44376  17.159  15.007   5.437
43896W        W44377  16.808  15.878   4.007
43897W        W44378  17.378  15.312   7.098
43898W        W44379  14.744  15.104   6.223
43899W        W44380  14.843  17.723   7.244
43900W        W44381  16.365  17.113   3.976
43901W        W44382  14.797  15.896   5.669
43902W        W44383  15.690  15.787   6.906
43903W        W44384  16.221  16.022   5.291
43904W        W44385  16.767  17.361   5.660
43905W        W44386  15.267  16.795   5.892
43906W        W44387  14.626  16.323   5.463
43907W        W44388  15.662  16.295   6.655
43908W        W44389  15.549  17.522   5.354
43909W        W44390  16.670  17.211   6.488
43910W        W44391  15.890  15.851   5.713
43911W        W44392  16.182  16.635   5.356
43912W        W44393  17.179  17.408   7.204
43913W        W44394  16.258  16.728   7.214
43914W        W44395  16.239  16.444   6.692
43915W        W44396  14.648  15.835   7.214
43916W        W44397  17.480  17.370   6.813
43917W        W44398  15.061  14.952   4.811
43918W        W44399  15.588  17.210   5.810
43919W        W44400  17.464  15.393   5.667
43920W        W44401  15.274  14.906   6.115
43921W        W44402  17.302  16.346   4.849
43922W        W44403  17.268  16.034   3.876
43923W        W44404  16.476  17.178   6.016
43924W        W44405  16.282  15.508   5.215
43925W        W44406  16.882  17.595   6.209
43926W        W44407  16.655  15.044   4.647
43927W        W44408  15.312  17.738   4.330
43928W        W44409  14.683  15.237   4.929
43929W        W44410  17.469  15.844   5.403
43930W        W44411  14.927  17.461   5.318
43931W        W44412  14.683  17.595   5.816
43932W        W44413  15.474  17.167   6.296
43933W        W44414  15.847  16.527   4.915
43934W        W44415  15.869  14.932   6.008
43935W        W44416  15.317  16.566   3.773
43936W        W44417  14.972  15.599   3.952
43937W        W44418  15.034  17.555   4.746
43938W        W44419  16.165  17.038   4.994
43939W        W44420  17.497  17.897   6.708
43940W        W44421  16.423  15.539   4.392
43941W        W44422  17.806  17.937   5.164
43942W        W44423  17.483  15.790   6.762
43943W        W44424  16.823  16.738   6.380
43944W        W44425  14.589  16.289   4.586
43945W        W44426  15.700  16.704   6.159
43946W        W44427  16.904  15.968   4.537
43947W        W44428  16.781  16.458   4.641
43948W        W44429  15.124  15.878   6.115
43949W        W44430  15.109  15.754   7.037
43950W        W44431  14.999  14.671   5.196
43951W        W44432  16.767  15.018   5.757
43952W        W44433  16.415  15.203   6.920
43953W        W44434  16.770  15.352   4.098
43954W        W44435  16.920  14.826   6.891
43955W        W44436  17.939  17.127   7.013
43956W        W44437  17.369  15.294   6.609
43957W        W44438  17.169  15.232   4.879
43958W        W44439  17.562  16.366   7.283
43959W        W44440  15.960  15.659   4.255
43960W        W44441  15.529  14.943   6.919
43961W        W44442  17.581  15.427   4.600
43962W        W44443  15.617  14.662   4.251
43963W        W44444  14.995  16.648   5.433
43964W        W44445  16.912  15.235   3.663
43965W        W44446  16.530  15.973   6.687
43966W        W44447  16.623  17.312   4.390
43967W        W44448  17.023  16.606   7.130
43968W        W44449  16.697  14.583   5.439
43969W        W44450  15.309  15.486   5.502
43970W        W44451  14.863  16.686   6.276
43971W        W44452  16.331  16.365   4.887
43972W        W44453  16.332  16.711   6.222
43973W        W44454  16.549  15.597   5.667
43974W        W44455  17.401  15.895   4.505
43975W        W44456  17.688  15.628   4.147
43976W        W44457  17.497  17.668   4.536
43977W        W44458  17.331  17.271   5.332
43978W        W44459  17.227  16.350   4.310
43979W        W44460  16.660  16.560   5.296
43980W        W44461  17.541  16.348   5.363
43981W        W44462  14.916  15.363   5.787
43982W        W44463  17.694  16.415   6.614
43983W        W44464  15.975  17.477   5.162
43984W        W44465  16.976  15.340   6.250
43985W        W44466  17.671  16.321   6.078
43986W        W44467  14.654  15.642   6.116
43987W        W44468  17.514  15.437   5.134
43988W        W44469  16.810  17.287   5.129
43989W        W44470  15.181  15.058   4.000
43990W        W44471  16.285  14.712   5.810
43991W        W44472  15.687  16.298   4.409
43992W        W44473  16.341  16.927   6.722
43993W        W44474  16.171  15.285   4.712
43994W        W44475  17.527  14.882   5.140
43995W        W44476  16.055  16.849   5.769
43996W        W44477  15.519  15.075   4.664
43997W        W44478  16.041  17.372   5.624
43998W        W44479  15.524  15.303   3.689
43999W        W44480  16.325  15.912   6.083
44000W        W44481  17.173  14.778   5.953
44001W        W44482  14.593  16.621   5.838
44002W        W44483  16.297  16.439   3.996
44003W        W44484  15.565  14.754   3.766
44004W        W44485  16.303  15.835   4.817
44005W        W44486  17.273  14.811   6.516
44006W        W44487  15.861  16.823   6.625
44007W        W44488  16.665  16.605   6.842
44008W        W44489  17.282  16.635   6.735
44009W        W44490  16.566  14.775   7.240
44010W        W44491  15.788  15.391   5.633
44011W        W44492  15.214  15.347   5.031
44012W        W44493  16.332  17.389   6.832
44013W        W44494  15.367  16.874   4.191
44014W        W44495  17.047  16.259   5.412
44015W        W44496  17.327  16.058   5.811
44016W        W44497  16.532  16.732   5.745
44017W        W44498  17.002  17.106   3.877
44018W        W44499  16.674  15.127   5.205
44019W        W44500  15.064  17.220   6.036
44020W        W44501  16.530  15.336   6.074
44021W        W44502  15.893  17.359   3.923
44022W        W44503  17.798  17.741   4.109
44023W        W44504  16.773  16.394   4.123
44024W        W44505  15.616  15.585   4.640
44025W        W44506  16.448  15.495   3.692
44026W        W44507  17.032  17.060   6.870
44027W        W44508  17.385  14.966   4.487
44028W        W44509  14.715  14.814   3.935
44029W        W44510  16.001  17.133   6.225
44030W        W44511  15.800  17.049   5.317
44031W        W44512  15.542  17.001   3.715
44032W        W44513  14.783  17.242   4.483
44033W        W44514  15.287  16.312   6.925
44034W        W44515  15.991  14.872   7.111
44035W        W44516  16.700  15.014   6.467
44036W        W44517  15.895  14.782   4.748
44037W        W44518  16.954  14.859   4.253
44038W        W44519  14.899  14.791   5.830
44039W        W44520  14.947  15.754   5.200
44040W        W44521  15.058  15.360   4.420
44041W        W44522  17.629  15.048   6.036
44042W        W44523  15.317  15.009   5.540
44043W        W44524  16.431  15.581   6.480
44044W        W44525  14.579  15.271   3.958
44045W        W44526  15.365  16.660   6.519
44046W        W44527  16.723  16.058   5.698
44047W        W44528  14.736  16.644   3.691
44048W        W44529  15.471  17.055   6.817
44049W        W44530  14.992  16.222   6.448
44050W        W44531  15.983  16.327   6.242
44051W        W44532  17.751  14.686   6.504
44052W        W44533  17.000  16.828   4.280
44053W        W44534  16.651  16.118   7.117
44054W        W44535  14.981  17.085   7.157
44055W        W44536  16.068  14.694   3.934
44056W        W44537  17.607  17.293   3.877
44057W        W44538  15.376  15.386   6.763
44058W        W44539  15.810  17.380   6.625
44059W        W44540  17.386  16.649   5.758
44060W        W44541  15.636  15.065   6.425
44061W        W44542  16.105  16.134   7.182
44062W        W44543  15.608  17.313   4.376
44063W        W44544  17.363  16.811   4.640
44064W        W44545  15.131  15.437   6.364
44065W        W44546  16.460  17.499   4.828
44066W        W44547  16.432  14.692   6.728
44067W        W44548  17.212  17.397   5.807
44068W        W44549  17.515  17.741   5.515
44069W        W44550  16.734  17.543   3.943
44070W        W44551  14.744  17.435   6.785
44071W        W44552  15.487  15.427   6.023
44072W        W44553  15.457  14.775   5.133
44073W        W44554  17.078  15.617   5.825
44074W        W44555  15.201  17.488   6.947
44075W        W44556  15.687  15.190   5.189
44076W        W44557  15.456  16.683   5.279
44077W        W44558  16.995  16.378   5.994
44078W        W44559  14.844  16.176   3.909
44079W        W44560  15.954  14.677   6.628
44080W        W44561  17.660  17.479   5.086
44081W        W44562  17.689  16.035   4.991
44082W        W44563  15.806  15.708   5.207
44083W        W44564  16.051  15.970   6.531
44084W        W44565  17.162  17.123   6.394
44085W        W44566  15.812  15.577   6.506
44086W        W44567  15.220  17.363   3.886
44087W        W44568  17.737  17.121   4.696
44088W        W44569  15.341  15.913   6.582
44089W        W44570  15.859  16.900   4.534
44090W        W44571  16.958  16.282   6.615
44091W        W44572  16.849  15.910   6.159
44092W        W44573  15.409  16.282   6.188
44093W        W44574  17.410  14.804   7.011
44094W        W44575  15.074  14.954   6.598
44095W        W44576  15.413  15.977   5.651
44096W        W44577  15.782  15.791   3.773
44097W        W44578  14.585  17.550   6.318
44098W        W44579  16.170  16.259   5.761
44099W        W44580  15.993  15.284   3.866
44100W        W44581  15.128  16.100   4.647
44101W        W44582  17.694  16.178   4.192
44102W        W44583  17.225  17.303   4.841
44103W        W44584  14.823  16.227   7.018
44104W        W44585  17.309  17.166   4.325
44105W        W44586  16.211  16.224   4.410
44106W        W44587  17.398  15.028   3.933
44107W        W44588  17.463  15.635   6.119
44108W        W44589  15.172  16.228   5.326
44109W        W44590  15.466  17.167   4.975
44110W        W44591  17.229  15.787   4.940
44111W        W44592  16.252  15.166   5.636
44112W        W44593  15.180  17.081   4.620
44113W        W44594  15.095  14.698   7.173
44114W        W44595  16.214  17.551   7.275
44115W        W44596  17.323  16.696   3.945
44116W        W44597  17.475  16.939   7.194
44117W        W44598  16.290  14.649   4.474
44118W        W44599  17.003  15.518   5.333
44119W        W44600  14.689  17.105   5.665
44120W        W44601  15.942  15.067   4.306
44121W        W44602  15.746  16.551   7.155
44122W        W44603  16.740  15.532   4.869
44123W        W44604  16.945  16.942   5.991
44124W        W44605  15.690  17.530   7.149
44125W        W44606  15.541  15.327   4.163
44126W        W44607  17.058  15.469   4.488
44127W        W44608  17.016  17.577   6.725
44128W        W44609  15.701  16.169   5.324
44129W        W44610  14.964  16.656   6.786
44130W        W44611  16.959  16.918   5.474
44131W        W44612  15.395  16.567   4.716
44132W        W44613  15.766  17.574   6.111
44133W        W44614  16.144  14.993   5.152
44134W        W44615  14.755  16.977   4.082
44135W        W44616  16.274  15.928   3.952
44136W        W44617  14.920  16.477   4.971
44137W        W44618  16.210  15.119   6.435
44138W        W44619  17.595  17.723   7.246
44139W        W44620  16.723  16.068   5.111
44140W        W44621  16.490  14.680   5.001
44141W        W44622  15.549  17.664   4.838
44142W        W44623  16.048  15.405   6.063
44143W        W44624  15.748  14.774   5.532
44144W        W44625  14.811  17.596   4.080
44145W        W44626  16.627  16.960   4.798
44146W        W44627  14.979  16.578   4.373
44147W        W44628  14.864  15.121   5.372
44148W        W44629  16.412  17.086   5.429
44149W        W44630  14.664  14.940   4.449
44150W        W44631  17.328  16.146   6.376
44151W        W44632  17.205  15.532   3.948
44152W        W44633  16.383  17.688   5.427
44153W        W44634  17.077  14.695   3.768
44154W        W44635  17.074  15.713   7.144
44155W        W44636  15.057  15.243   7.143
44156W        W44637  14.788  15.843   4.476
44157W        W44638  15.479  15.832   4.201
44158W        W44639  15.585  16.440   5.727
44159W        W44640  17.059  14.726   4.847
44160W        W44641  17.404  17.619   6.287
44161W        W44642  17.007  16.748   4.992
44162W        W44643  16.469  14.973   4.063
44163W        W44644  15.838  16.236   3.948
44164W        W44645  16.696  16.743   3.815
44165W        W44646  17.632  16.943   6.563
44166W        W44647  17.286  17.644   4.030
44167W        W44648  15.901  15.319   6.936
44168W        W44649  15.721  15.903   6.177
44169W        W44650  16.913  15.348   6.831
44170W        W44651  14.757  15.819   6.608
44171W        W44652  16.517  16.296   6.334
44172W        W44653  14.874  17.054   4.991
44173W        W44654  15.021  16.351   5.881
44174W        W44655  17.338  16.637   6.231
44175W        W44656  17.006  15.756   6.595
44176W        W44657  16.285  17.530   6.323
44177W        W44658  17.575  17.056   6.011
44178W        W44659  16.625  17.128   7.148
44179W        W44660  15.230  17.081   5.487
44180W        W44661  17.576  16.840   5.132
44181W        W44662  15.195  17.635   5.753
44182W        W44663  16.216  15.687   6.963
44183W        W44664  15.975  17.108   7.112
44184W        W44665  16.101  17.346   4.489
44185W        W44666  15.322  16.086   3.748
44186W        W44667  15.037  17.065  10.171
44187W        W44668  17.742  16.795   7.941
44188W        W44669  15.873  16.023   8.477
44189W        W44670  15.388  15.871   8.641
44190W        W44671  16.379  16.686   8.075
44191W        W44672  14.703  15.339  10.393
44192W        W44673  15.465  14.619  10.195
44193W        W44674  17.159  15.007   9.082
44194W        W44675  16.808  15.878   7.652
44195W        W44676  17.378  15.312  10.743
44196W        W44677  14.744  15.104   9.868
44197W        W44678  14.843  17.723  10.889
44198W        W44679  16.365  17.113   7.621
44199W        W44680  14.797  15.896   9.314
44200W        W44681  15.690  15.787  10.551
44201W        W44682  16.221  16.022   8.936
44202W        W44683  16.767  17.361   9.305
44203W        W44684  15.267  16.795   9.537
44204W        W44685  14.626  16.323   9.108
44205W        W44686  15.662  16.295  10.300
44206W        W44687  15.549  17.522   8.999
44207W        W44688  16.670  17.211  10.133
44208W        W44689  15.890  15.851   9.358
44209W        W44690  16.182  16.635   9.001
44210W        W44691  17.179  17.408  10.849
44211W        W44692  16.258  16.728  10.859
44212W        W44693  16.239  16.444  10.337
44213W        W44694  14.648  15.835  10.859
44214W        W44695  17.480  17.370  10.458
44215W        W44696  15.061  14.952   8.456
44216W        W44697  15.588  17.210   9.455
44217W        W44698  17.464  15.393   9.312
44218W        W44699  15.274  14.906   9.760
44219W        W44700  17.302  16.346   8.494
44220W        W44701  17.268  16.034   7.521
44221W        W44702  16.476  17.178   9.661
44222W        W44703  16.282  15.508   8.860
44223W        W44704  16.882  17.595   9.854
44224W        W44705  16.655  15.044   8.292
44225W        W44706  15.312  17.738   7.975
44226W        W44707  14.683  15.237   8.574
44227W        W44708  17.469  15.844   9.048
44228W        W44709  14.927  17.461   8.963
44229W        W44710  14.683  17.595   9.461
44230W        W44711  15.474  17.167   9.941
44231W        W44712  15.847  16.527   8.560
44232W        W44713  15.869  14.932   9.653
44233W        W44714  15.317  16.566   7.418
44234W        W44715  14.972  15.599   7.597
44235W        W44716  15.034  17.555   8.391
44236W        W44717  16.165  17.038   8.639
44237W        W44718  17.497  17.897  10.353
44238W        W44719  16.423  15.539   8.037
44239W        W44720  17.806  17.937   8.809
44240W        W44721  17.483  15.790  10.407
44241W        W44722  16.823  16.738  10.025
44242W        W44723  14.589  16.289   8.231
44243W        W44724  15.700  16.704   9.804
44244W        W44725  16.904  15.968   8.182
44245W        W44726  16.781  16.458   8.286
44246W        W44727  15.124  15.878   9.760
44247W        W44728  15.109  15.754  10.682
44248W        W44729  14.999  14.671   8.841
44249W        W44730  16.767  15.018   9.402
44250W        W44731  16.415  15.203  10.565
44251W        W44732  16.770  15.352   7.743
44252W        W44733  16.920  14.826  10.536
44253W        W44734  17.939  17.127  10.658
44254W        W44735  17.369  15.294  10.254
44255W        W44736  17.169  15.232   8.524
44256W        W44737  17.562  16.366  10.928
44257W        W44738  15.960  15.659   7.900
44258W        W44739  15.529  14.943  10.564
44259W        W44740  17.581  15.427   8.245
44260W        W44741  15.617  14.662   7.896
44261W        W44742  14.995  16.648   9.078
44262W        W44743  16.912  15.235   7.308
44263W        W44744  16.530  15.973  10.332
44264W        W44745  16.623  17.312   8.035
44265W        W44746  17.023  16.606  10.775
44266W        W44747  16.697  14.583   9.084
44267W        W44748  15.309  15.486   9.147
44268W        W44749  14.863  16.686   9.921
44269W        W44750  16.331  16.365   8.532
44270W        W44751  16.332  16.711   9.867
44271W        W44752  16.549  15.597   9.312
44272W        W44753  17.401  15.895   8.150
44273W        W44754  17.688  15.628   7.792
44274W        W44755  17.497  17.668   8.181
44275W        W44756  17.331  17.271   8.977
44276W        W44757  17.227  16.350   7.955
44277W        W44758  16.660  16.560   8.941
44278W        W44759  17.541  16.348   9.008
44279W        W44760  14.916  15.363   9.432
44280W        W44761  17.694  16.415  10.259
44281W        W44762  15.975  17.477   8.807
44282W        W44763  16.976  15.340   9.895
44283W        W44764  17.671  16.321   9.723
44284W        W44765  14.654  15.642   9.761
44285W        W44766  17.514  15.437   8.779
44286W        W44767  16.810  17.287   8.774
44287W        W44768  15.181  15.058   7.645
44288W        W44769  16.285  14.712   9.455
44289W        W44770  15.687  16.298   8.054
44290W        W44771  16.341  16.927  10.367
44291W        W44772  16.171  15.285   8.357
44292W        W44773  17.527  14.882   8.785
44293W        W44774  16.055  16.849   9.414
44294W        W44775  15.519  15.075   8.309
44295W        W44776  16.041  17.372   9.269
44296W        W44777  15.524  15.303   7.334
44297W        W44778  16.325  15.912   9.728
44298W        W44779  14.593  16.621   9.483
44299W        W44780  16.297  16.439   7.641
44300W        W44781  15.565  14.754   7.411
44301W        W44782  16.303  15.835   8.462
44302W        W44783  17.273  14.811  10.161
44303W        W44784  15.861  16.823  10.270
44304W        W44785  16.665  16.605  10.487
44305W        W44786  17.282  16.635  10.380
44306W        W44787  16.566  14.775  10.885
44307W        W44788  15.788  15.391   9.278
44308W        W44789  15.214  15.347   8.676
44309W        W44790  16.332  17.389  10.477
44310W        W44791  15.367  16.874   7.836
44311W        W44792  17.047  16.259   9.057
44312W        W44793  17.327  16.058   9.456
44313W        W44794  16.532  16.732   9.390
44314W        W44795  17.002  17.106   7.522
44315W        W44796  16.674  15.127   8.850
44316W        W44797  15.064  17.220   9.681
44317W        W44798  16.530  15.336   9.719
44318W        W44799  15.893  17.359   7.568
44319W        W44800  17.798  17.741   7.754
44320W        W44801  16.773  16.394   7.768
44321W        W44802  15.616  15.585   8.285
44322W        W44803  16.448  15.495   7.337
44323W        W44804  17.032  17.060  10.515
44324W        W44805  17.385  14.966   8.132
44325W        W44806  14.715  14.814   7.580
44326W        W44807  16.001  17.133   9.870
44327W        W44808  15.800  17.049   8.962
44328W        W44809  15.542  17.001   7.360
44329W        W44810  14.783  17.242   8.128
44330W        W44811  15.991  14.872  10.756
44331W        W44812  16.700  15.014  10.112
44332W        W44813  15.895  14.782   8.393
44333W        W44814  16.954  14.859   7.898
44334W        W44815  14.899  14.791   9.475
44335W        W44816  14.947  15.754   8.845
44336W        W44817  17.636  14.862   9.251
44337W        W44818  15.058  15.360   8.065
44338W        W44819  17.629  15.048   9.681
44339W        W44820  15.317  15.009   9.185
44340W        W44821  16.431  15.581  10.125
44341W        W44822  14.579  15.271   7.603
44342W        W44823  15.365  16.660  10.164
44343W        W44824  16.723  16.058   9.343
44344W        W44825  14.736  16.644   7.336
44345W        W44826  15.471  17.055  10.462
44346W        W44827  14.992  16.222  10.093
44347W        W44828  15.983  16.327   9.887
44348W        W44829  17.751  14.686  10.149
44349W        W44830  17.000  16.828   7.925
44350W        W44831  16.651  16.118  10.762
44351W        W44832  14.981  17.085  10.802
44352W        W44833  16.068  14.694   7.579
44353W        W44834  17.607  17.293   7.522
44354W        W44835  15.376  15.386  10.408
44355W        W44836  15.810  17.380  10.270
44356W        W44837  17.386  16.649   9.403
44357W        W44838  15.636  15.065  10.070
44358W        W44839  16.105  16.134  10.827
44359W        W44840  15.608  17.313   8.021
44360W        W44841  17.363  16.811   8.285
44361W        W44842  15.131  15.437  10.009
44362W        W44843  16.460  17.499   8.473
44363W        W44844  16.432  14.692  10.373
44364W        W44845  17.212  17.397   9.452
44365W        W44846  17.515  17.741   9.160
44366W        W44847  14.744  17.435  10.430
44367W        W44848  15.487  15.427   9.668
44368W        W44849  15.457  14.775   8.778
44369W        W44850  17.078  15.617   9.470
44370W        W44851  15.876  16.788   7.670
44371W        W44852  15.201  17.488  10.592
44372W        W44853  15.687  15.190   8.834
44373W        W44854  15.456  16.683   8.924
44374W        W44855  16.995  16.378   9.639
44375W        W44856  14.844  16.176   7.554
44376W        W44857  17.660  17.479   8.731
44377W        W44858  17.689  16.035   8.636
44378W        W44859  15.806  15.708   8.852
44379W        W44860  16.051  15.970  10.176
44380W        W44861  17.162  17.123  10.039
44381W        W44862  15.812  15.577  10.151
44382W        W44863  15.220  17.363   7.531
44383W        W44864  17.737  17.121   8.341
44384W        W44865  15.341  15.913  10.227
44385W        W44866  15.859  16.900   8.179
44386W        W44867  16.958  16.282  10.260
44387W        W44868  16.849  15.910   9.804
44388W        W44869  15.409  16.282   9.833
44389W        W44870  17.410  14.804  10.656
44390W        W44871  15.074  14.954  10.243
44391W        W44872  15.413  15.977   9.296
44392W        W44873  15.782  15.791   7.418
44393W        W44874  14.585  17.550   9.963
44394W        W44875  16.170  16.259   9.406
44395W        W44876  15.993  15.284   7.511
44396W        W44877  15.128  16.100   8.292
44397W        W44878  17.694  16.178   7.837
44398W        W44879  17.225  17.303   8.486
44399W        W44880  14.823  16.227  10.663
44400W        W44881  17.309  17.166   7.970
44401W        W44882  16.211  16.224   8.055
44402W        W44883  17.398  15.028   7.578
44403W        W44884  17.463  15.635   9.764
44404W        W44885  15.172  16.228   8.971
44405W        W44886  15.466  17.167   8.620
44406W        W44887  17.229  15.787   8.585
44407W        W44888  16.252  15.166   9.281
44408W        W44889  15.180  17.081   8.265
44409W        W44890  15.095  14.698  10.818
44410W        W44891  16.214  17.551  10.920
44411W        W44892  17.323  16.696   7.590
44412W        W44893  17.475  16.939  10.839
44413W        W44894  16.290  14.649   8.119
44414W        W44895  17.003  15.518   8.978
44415W        W44896  14.689  17.105   9.310
44416W        W44897  15.942  15.067   7.951
44417W        W44898  15.746  16.551  10.800
44418W        W44899  16.740  15.532   8.514
44419W        W44900  16.945  16.942   9.636
44420W        W44901  15.099  17.547  10.071
44421W        W44902  15.690  17.530  10.794
44422W        W44903  15.541  15.327   7.808
44423W        W44904  17.058  15.469   8.133
44424W        W44905  17.016  17.577  10.370
44425W        W44906  15.701  16.169   8.969
44426W        W44907  14.964  16.656  10.431
44427W        W44908  16.959  16.918   9.119
44428W        W44909  15.395  16.567   8.361
44429W        W44910  15.766  17.574   9.756
44430W        W44911  16.144  14.993   8.797
44431W        W44912  14.755  16.977   7.727
44432W        W44913  16.274  15.928   7.597
44433W        W44914  14.920  16.477   8.616
44434W        W44915  16.210  15.119  10.080
44435W        W44916  17.595  17.723  10.891
44436W        W44917  16.723  16.068   8.756
44437W        W44918  16.490  14.680   8.646
44438W        W44919  15.549  17.664   8.483
44439W        W44920  16.048  15.405   9.708
44440W        W44921  15.748  14.774   9.177
44441W        W44922  14.811  17.596   7.725
44442W        W44923  16.627  16.960   8.443
44443W        W44924  14.979  16.578   8.018
44444W        W44925  14.864  15.121   9.017
44445W        W44926  16.412  17.086   9.074
44446W        W44927  14.664  14.940   8.094
44447W        W44928  17.328  16.146  10.021
44448W        W44929  17.205  15.532   7.593
44449W        W44930  16.383  17.688   9.072
44450W        W44931  17.077  14.695   7.413
44451W        W44932  17.074  15.713  10.789
44452W        W44933  15.057  15.243  10.788
44453W        W44934  14.788  15.843   8.121
44454W        W44935  15.479  15.832   7.846
44455W        W44936  17.242  16.159  10.663
44456W        W44937  15.585  16.440   9.372
44457W        W44938  17.059  14.726   8.492
44458W        W44939  17.404  17.619   9.932
44459W        W44940  17.007  16.748   8.637
44460W        W44941  16.469  14.973   7.708
44461W        W44942  15.838  16.236   7.593
44462W        W44943  16.696  16.743   7.460
44463W        W44944  17.632  16.943  10.208
44464W        W44945  17.286  17.644   7.675
44465W        W44946  15.901  15.319  10.581
44466W        W44947  15.721  15.903   9.822
44467W        W44948  16.913  15.348  10.476
44468W        W44949  14.757  15.819  10.253
44469W        W44950  16.517  16.296   9.979
44470W        W44951  14.874  17.054   8.636
44471W        W44952  15.021  16.351   9.526
44472W        W44953  17.338  16.637   9.876
44473W        W44954  17.006  15.756  10.240
44474W        W44955  16.285  17.530   9.968
44475W        W44956  17.575  17.056   9.656
44476W        W44957  16.625  17.128  10.793
44477W        W44958  15.230  17.081   9.132
44478W        W44959  17.576  16.840   8.777
44479W        W44960  15.195  17.635   9.398
44480W        W44961  16.216  15.687  10.608
44481W        W44962  15.975  17.108  10.757
44482W        W44963  16.101  17.346   8.134
44483W        W44964  15.322  16.086   7.393
44484W        W44965  15.037  17.065  13.815
44485W        W44966  17.742  16.795  11.585
44486W        W44967  15.873  16.023  12.121
44487W        W44968  15.388  15.871  12.285
44488W        W44969  16.379  16.686  11.719
44489W        W44970  14.703  15.339  14.037
44490W        W44971  15.465  14.619  13.839
44491W        W44972  17.159  15.007  12.726
44492W        W44973  16.808  15.878  11.296
44493W        W44974  17.378  15.312  14.387
44494W        W44975  14.744  15.104  13.512
44495W        W44976  14.843  17.723  14.533
44496W        W44977  16.365  17.113  11.265
44497W        W44978  14.797  15.896  12.958
44498W        W44979  15.690  15.787  14.195
44499W        W44980  16.221  16.022  12.580
44500W        W44981  16.767  17.361  12.949
44501W        W44982  15.267  16.795  13.181
44502W        W44983  14.626  16.323  12.752
44503W        W44984  15.662  16.295  13.944
44504W        W44985  15.549  17.522  12.643
44505W        W44986  16.670  17.211  13.777
44506W        W44987  15.890  15.851  13.002
44507W        W44988  16.182  16.635  12.645
44508W        W44989  17.179  17.408  14.493
44509W        W44990  16.258  16.728  14.503
44510W        W44991  16.239  16.444  13.981
44511W        W44992  14.648  15.835  14.503
44512W        W44993  17.480  17.370  14.102
44513W        W44994  15.061  14.952  12.100
44514W        W44995  15.588  17.210  13.099
44515W        W44996  17.464  15.393  12.956
44516W        W44997  15.274  14.906  13.404
44517W        W44998  17.302  16.346  12.138
44518W        W44999  17.268  16.034  11.165
44519W        W45000  16.476  17.178  13.305
44520W        W45001  16.282  15.508  12.504
44521W        W45002  16.882  17.595  13.498
44522W        W45003  16.655  15.044  11.936
44523W        W45004  15.312  17.738  11.619
44524W        W45005  14.683  15.237  12.218
44525W        W45006  17.469  15.844  12.692
44526W        W45007  14.927  17.461  12.607
44527W        W45008  14.683  17.595  13.105
44528W        W45009  15.474  17.167  13.585
44529W        W45010  15.847  16.527  12.204
44530W        W45011  15.869  14.932  13.297
44531W        W45012  15.317  16.566  11.062
44532W        W45013  14.972  15.599  11.241
44533W        W45014  15.034  17.555  12.035
44534W        W45015  16.165  17.038  12.283
44535W        W45016  17.497  17.897  13.997
44536W        W45017  16.423  15.539  11.681
44537W        W45018  17.806  17.937  12.453
44538W        W45019  17.483  15.790  14.051
44539W        W45020  14.589  16.289  11.875
44540W        W45021  15.700  16.704  13.448
44541W        W45022  16.904  15.968  11.826
44542W        W45023  16.781  16.458  11.930
44543W        W45024  15.124  15.878  13.404
44544W        W45025  15.109  15.754  14.326
44545W        W45026  14.999  14.671  12.485
44546W        W45027  16.767  15.018  13.046
44547W        W45028  16.415  15.203  14.209
44548W        W45029  16.920  14.826  14.180
44549W        W45030  17.939  17.127  14.302
44550W        W45031  17.369  15.294  13.898
44551W        W45032  17.169  15.232  12.168
44552W        W45033  17.562  16.366  14.572
44553W        W45034  15.960  15.659  11.544
44554W        W45035  15.529  14.943  14.208
44555W        W45036  17.581  15.427  11.889
44556W        W45037  15.617  14.662  11.540
44557W        W45038  14.995  16.648  12.722
44558W        W45039  16.912  15.235  10.952
44559W        W45040  16.530  15.973  13.976
44560W        W45041  16.623  17.312  11.679
44561W        W45042  17.023  16.606  14.419
44562W        W45043  16.697  14.583  12.728
44563W        W45044  15.309  15.486  12.791
44564W        W45045  14.863  16.686  13.565
44565W        W45046  16.331  16.365  12.176
44566W        W45047  16.332  16.711  13.511
44567W        W45048  16.549  15.597  12.956
44568W        W45049  17.401  15.895  11.794
44569W        W45050  17.688  15.628  11.436
44570W        W45051  17.497  17.668  11.825
44571W        W45052  17.331  17.271  12.621
44572W        W45053  17.227  16.350  11.599
44573W        W45054  16.660  16.560  12.585
44574W        W45055  17.541  16.348  12.652
44575W        W45056  14.916  15.363  13.076
44576W        W45057  17.694  16.415  13.903
44577W        W45058  15.975  17.477  12.451
44578W        W45059  16.976  15.340  13.539
44579W        W45060  17.671  16.321  13.367
44580W        W45061  14.654  15.642  13.405
44581W        W45062  17.514  15.437  12.423
44582W        W45063  16.810  17.287  12.418
44583W        W45064  15.181  15.058  11.289
44584W        W45065  16.285  14.712  13.099
44585W        W45066  15.687  16.298  11.698
44586W        W45067  16.341  16.927  14.011
44587W        W45068  16.171  15.285  12.001
44588W        W45069  17.527  14.882  12.429
44589W        W45070  16.055  16.849  13.058
44590W        W45071  15.519  15.075  11.953
44591W        W45072  16.041  17.372  12.913
44592W        W45073  15.524  15.303  10.978
44593W        W45074  16.325  15.912  13.372
44594W        W45075  17.173  14.778  13.242
44595W        W45076  14.593  16.621  13.127
44596W        W45077  16.297  16.439  11.285
44597W        W45078  15.565  14.754  11.055
44598W        W45079  16.303  15.835  12.106
44599W        W45080  17.273  14.811  13.805
44600W        W45081  15.861  16.823  13.914
44601W        W45082  16.665  16.605  14.131
44602W        W45083  17.282  16.635  14.024
44603W        W45084  16.566  14.775  14.529
44604W        W45085  15.214  15.347  12.320
44605W        W45086  16.332  17.389  14.121
44606W        W45087  15.367  16.874  11.480
44607W        W45088  17.047  16.259  12.701
44608W        W45089  17.327  16.058  13.100
44609W        W45090  16.532  16.732  13.034
44610W        W45091  17.002  17.106  11.166
44611W        W45092  16.674  15.127  12.494
44612W        W45093  15.064  17.220  13.325
44613W        W45094  16.530  15.336  13.363
44614W        W45095  15.893  17.359  11.212
44615W        W45096  17.798  17.741  11.398
44616W        W45097  16.773  16.394  11.412
44617W        W45098  15.616  15.585  11.929
44618W        W45099  16.448  15.495  10.981
44619W        W45100  17.032  17.060  14.159
44620W        W45101  17.385  14.966  11.776
44621W        W45102  14.715  14.814  11.224
44622W        W45103  16.001  17.133  13.514
44623W        W45104  15.800  17.049  12.606
44624W        W45105  15.542  17.001  11.004
44625W        W45106  14.783  17.242  11.772
44626W        W45107  15.287  16.312  14.214
44627W        W45108  15.991  14.872  14.400
44628W        W45109  16.700  15.014  13.756
44629W        W45110  15.895  14.782  12.037
44630W        W45111  16.954  14.859  11.542
44631W        W45112  14.899  14.791  13.119
44632W        W45113  14.947  15.754  12.489
44633W        W45114  17.636  14.862  12.895
44634W        W45115  15.058  15.360  11.709
44635W        W45116  17.629  15.048  13.325
44636W        W45117  15.317  15.009  12.829
44637W        W45118  16.431  15.581  13.769
44638W        W45119  14.579  15.271  11.247
44639W        W45120  15.365  16.660  13.808
44640W        W45121  16.723  16.058  12.987
44641W        W45122  14.736  16.644  10.980
44642W        W45123  15.471  17.055  14.106
44643W        W45124  14.992  16.222  13.737
44644W        W45125  15.983  16.327  13.531
44645W        W45126  17.751  14.686  13.793
44646W        W45127  17.000  16.828  11.569
44647W        W45128  16.651  16.118  14.406
44648W        W45129  14.981  17.085  14.446
44649W        W45130  16.068  14.694  11.223
44650W        W45131  17.607  17.293  11.166
44651W        W45132  15.376  15.386  14.052
44652W        W45133  15.810  17.380  13.914
44653W        W45134  17.386  16.649  13.047
44654W        W45135  15.636  15.065  13.714
44655W        W45136  16.105  16.134  14.471
44656W        W45137  15.608  17.313  11.665
44657W        W45138  17.363  16.811  11.929
44658W        W45139  15.131  15.437  13.653
44659W        W45140  16.460  17.499  12.117
44660W        W45141  16.432  14.692  14.017
44661W        W45142  17.212  17.397  13.096
44662W        W45143  17.515  17.741  12.804
44663W        W45144  16.734  17.543  11.232
44664W        W45145  14.744  17.435  14.074
44665W        W45146  15.487  15.427  13.312
44666W        W45147  15.457  14.775  12.422
44667W        W45148  17.078  15.617  13.114
44668W        W45149  15.876  16.788  11.314
44669W        W45150  15.201  17.488  14.236
44670W        W45151  15.687  15.190  12.478
44671W        W45152  15.456  16.683  12.568
44672W        W45153  16.995  16.378  13.283
44673W        W45154  14.844  16.176  11.198
44674W        W45155  15.954  14.677  13.917
44675W        W45156  17.660  17.479  12.375
44676W        W45157  17.689  16.035  12.280
44677W        W45158  15.806  15.708  12.496
44678W        W45159  16.051  15.970  13.820
44679W        W45160  17.162  17.123  13.683
44680W        W45161  15.812  15.577  13.795
44681W        W45162  15.220  17.363  11.175
44682W        W45163  17.737  17.121  11.985
44683W        W45164  15.341  15.913  13.871
44684W        W45165  15.859  16.900  11.823
44685W        W45166  16.958  16.282  13.904
44686W        W45167  16.849  15.910  13.448
44687W        W45168  15.409  16.282  13.477
44688W        W45169  17.410  14.804  14.300
44689W        W45170  15.074  14.954  13.887
44690W        W45171  15.413  15.977  12.940
44691W        W45172  15.782  15.791  11.062
44692W        W45173  14.585  17.550  13.607
44693W        W45174  16.170  16.259  13.050
44694W        W45175  15.128  16.100  11.936
44695W        W45176  17.694  16.178  11.481
44696W        W45177  17.225  17.303  12.130
44697W        W45178  14.823  16.227  14.307
44698W        W45179  17.309  17.166  11.614
44699W        W45180  16.211  16.224  11.699
44700W        W45181  17.398  15.028  11.222
44701W        W45182  17.463  15.635  13.408
44702W        W45183  15.172  16.228  12.615
44703W        W45184  15.466  17.167  12.264
44704W        W45185  17.229  15.787  12.229
44705W        W45186  16.252  15.166  12.925
44706W        W45187  15.180  17.081  11.909
44707W        W45188  15.095  14.698  14.462
44708W        W45189  16.214  17.551  14.564
44709W        W45190  17.323  16.696  11.234
44710W        W45191  17.475  16.939  14.483
44711W        W45192  16.290  14.649  11.763
44712W        W45193  17.003  15.518  12.622
44713W        W45194  14.689  17.105  12.954
44714W        W45195  15.942  15.067  11.595
44715W        W45196  15.746  16.551  14.444
44716W        W45197  16.740  15.532  12.158
44717W        W45198  16.945  16.942  13.280
44718W        W45199  15.099  17.547  13.715
44719W        W45200  15.690  17.530  14.438
44720W        W45201  15.541  15.327  11.452
44721W        W45202  17.058  15.469  11.777
44722W        W45203  17.016  17.577  14.014
44723W        W45204  15.701  16.169  12.613
44724W        W45205  14.964  16.656  14.075
44725W        W45206  16.959  16.918  12.763
44726W        W45207  15.395  16.567  12.005
44727W        W45208  16.144  14.993  12.441
44728W        W45209  14.755  16.977  11.371
44729W        W45210  16.274  15.928  11.241
44730W        W45211  14.920  16.477  12.260
44731W        W45212  16.210  15.119  13.724
44732W        W45213  17.595  17.723  14.535
44733W        W45214  16.723  16.068  12.400
44734W        W45215  16.490  14.680  12.290
44735W        W45216  16.048  15.405  13.352
44736W        W45217  15.748  14.774  12.821
44737W        W45218  14.811  17.596  11.369
44738W        W45219  16.627  16.960  12.087
44739W        W45220  14.979  16.578  11.662
44740W        W45221  14.864  15.121  12.661
44741W        W45222  16.412  17.086  12.718
44742W        W45223  14.664  14.940  11.738
44743W        W45224  17.328  16.146  13.665
44744W        W45225  17.205  15.532  11.237
44745W        W45226  16.383  17.688  12.716
44746W        W45227  17.077  14.695  11.057
44747W        W45228  17.074  15.713  14.433
44748W        W45229  15.057  15.243  14.432
44749W        W45230  14.788  15.843  11.765
44750W        W45231  15.479  15.832  11.490
44751W        W45232  17.242  16.159  14.307
44752W        W45233  15.585  16.440  13.016
44753W        W45234  17.059  14.726  12.136
44754W        W45235  17.404  17.619  13.576
44755W        W45236  17.007  16.748  12.281
44756W        W45237  16.469  14.973  11.352
44757W        W45238  15.838  16.236  11.237
44758W        W45239  16.696  16.743  11.104
44759W        W45240  17.632  16.943  13.852
44760W        W45241  17.286  17.644  11.319
44761W        W45242  15.901  15.319  14.225
44762W        W45243  15.721  15.903  13.466
44763W        W45244  16.913  15.348  14.120
44764W        W45245  14.757  15.819  13.897
44765W        W45246  16.517  16.296  13.623
44766W        W45247  14.874  17.054  12.280
44767W        W45248  15.021  16.351  13.170
44768W        W45249  17.338  16.637  13.520
44769W        W45250  17.006  15.756  13.884
44770W        W45251  16.285  17.530  13.612
44771W        W45252  17.575  17.056  13.300
44772W        W45253  16.625  17.128  14.437
44773W        W45254  15.230  17.081  12.776
44774W        W45255  17.576  16.840  12.421
44775W        W45256  15.195  17.635  13.042
44776W        W45257  16.216  15.687  14.252
44777W        W45258  15.975  17.108  14.401
44778W        W45259  16.101  17.346  11.778
44779W        W45260  15.322  16.086  11.037
44780W        W45261  15.037  17.065  17.459
44781W        W45262  17.742  16.795  15.229
44782W        W45263  15.873  16.023  15.765
44783W        W45264  15.388  15.871  15.929
44784W        W45265  16.379  16.686  15.363
44785W        W45266  14.703  15.339  17.681
44786W        W45267  15.465  14.619  17.483
44787W        W45268  17.159  15.007  16.370
44788W        W45269  16.808  15.878  14.940
44789W        W45270  14.744  15.104  17.156
44790W        W45271  16.365  17.113  14.909
44791W        W45272  14.797  15.896  16.602
44792W        W45273  16.221  16.022  16.224
44793W        W45274  16.767  17.361  16.593
44794W        W45275  15.267  16.795  16.825
44795W        W45276  14.626  16.323  16.396
44796W        W45277  15.662  16.295  17.588
44797W        W45278  15.549  17.522  16.287
44798W        W45279  16.670  17.211  17.421
44799W        W45280  15.890  15.851  16.646
44800W        W45281  16.182  16.635  16.289
44801W        W45282  16.239  16.444  17.625
44802W        W45283  17.480  17.370  17.746
44803W        W45284  15.061  14.952  15.744
44804W        W45285  15.588  17.210  16.743
44805W        W45286  17.464  15.393  16.600
44806W        W45287  15.274  14.906  17.048
44807W        W45288  17.302  16.346  15.782
44808W        W45289  17.268  16.034  14.809
44809W        W45290  16.476  17.178  16.949
44810W        W45291  16.282  15.508  16.148
44811W        W45292  16.882  17.595  17.142
44812W        W45293  16.655  15.044  15.580
44813W        W45294  15.312  17.738  15.263
44814W        W45295  14.683  15.237  15.862
44815W        W45296  17.469  15.844  16.336
44816W        W45297  14.927  17.461  16.251
44817W        W45298  14.683  17.595  16.749
44818W        W45299  15.474  17.167  17.229
44819W        W45300  15.847  16.527  15.848
44820W        W45301  15.869  14.932  16.941
44821W        W45302  15.317  16.566  14.706
44822W        W45303  14.972  15.599  14.885
44823W        W45304  15.034  17.555  15.679
44824W        W45305  16.165  17.038  15.927
44825W        W45306  17.497  17.897  17.641
44826W        W45307  16.423  15.539  15.325
44827W        W45308  17.806  17.937  16.097
44828W        W45309  16.823  16.738  17.313
44829W        W45310  14.589  16.289  15.519
44830W        W45311  16.904  15.968  15.470
44831W        W45312  16.781  16.458  15.574
44832W        W45313  15.124  15.878  17.048
44833W        W45314  14.999  14.671  16.129
44834W        W45315  16.767  15.018  16.690
44835W        W45316  16.770  15.352  15.031
44836W        W45317  16.920  14.826  17.824
44837W        W45318  17.939  17.127  17.946
44838W        W45319  17.369  15.294  17.542
44839W        W45320  17.169  15.232  15.812
44840W        W45321  15.960  15.659  15.188
44841W        W45322  17.581  15.427  15.533
44842W        W45323  15.617  14.662  15.184
44843W        W45324  14.995  16.648  16.366
44844W        W45325  16.912  15.235  14.596
44845W        W45326  16.530  15.973  17.620
44846W        W45327  16.623  17.312  15.323
44847W        W45328  16.697  14.583  16.372
44848W        W45329  15.309  15.486  16.435
44849W        W45330  14.863  16.686  17.209
44850W        W45331  16.331  16.365  15.820
44851W        W45332  16.332  16.711  17.155
44852W        W45333  16.549  15.597  16.600
44853W        W45334  17.401  15.895  15.438
44854W        W45335  17.688  15.628  15.080
44855W        W45336  17.497  17.668  15.469
44856W        W45337  17.331  17.271  16.265
44857W        W45338  17.227  16.350  15.243
44858W        W45339  16.660  16.560  16.229
44859W        W45340  17.541  16.348  16.296
44860W        W45341  14.916  15.363  16.720
44861W        W45342  17.694  16.415  17.547
44862W        W45343  15.975  17.477  16.095
44863W        W45344  16.976  15.340  17.183
44864W        W45345  17.671  16.321  17.011
44865W        W45346  14.654  15.642  17.049
44866W        W45347  17.514  15.437  16.067
44867W        W45348  16.810  17.287  16.062
44868W        W45349  15.181  15.058  14.933
44869W        W45350  16.285  14.712  16.743
44870W        W45351  15.687  16.298  15.342
44871W        W45352  16.341  16.927  17.655
44872W        W45353  17.527  14.882  16.073
44873W        W45354  16.055  16.849  16.702
44874W        W45355  15.519  15.075  15.597
44875W        W45356  16.041  17.372  16.557
44876W        W45357  15.524  15.303  14.622
44877W        W45358  16.325  15.912  17.016
44878W        W45359  17.173  14.778  16.886
44879W        W45360  14.593  16.621  16.771
44880W        W45361  16.297  16.439  14.929
44881W        W45362  15.565  14.754  14.699
44882W        W45363  16.303  15.835  15.750
44883W        W45364  17.273  14.811  17.449
44884W        W45365  15.861  16.823  17.558
44885W        W45366  17.282  16.635  17.668
44886W        W45367  15.788  15.391  16.566
44887W        W45368  15.214  15.347  15.964
44888W        W45369  16.332  17.389  17.765
44889W        W45370  15.367  16.874  15.124
44890W        W45371  17.047  16.259  16.345
44891W        W45372  17.327  16.058  16.744
44892W        W45373  16.532  16.732  16.678
44893W        W45374  17.002  17.106  14.810
44894W        W45375  16.674  15.127  16.138
44895W        W45376  15.064  17.220  16.969
44896W        W45377  16.530  15.336  17.007
44897W        W45378  15.893  17.359  14.856
44898W        W45379  17.798  17.741  15.042
44899W        W45380  16.773  16.394  15.056
44900W        W45381  15.616  15.585  15.573
44901W        W45382  16.448  15.495  14.625
44902W        W45383  17.385  14.966  15.420
44903W        W45384  14.715  14.814  14.868
44904W        W45385  16.001  17.133  17.158
44905W        W45386  15.800  17.049  16.250
44906W        W45387  15.542  17.001  14.648
44907W        W45388  14.783  17.242  15.416
44908W        W45389  16.700  15.014  17.400
44909W        W45390  15.895  14.782  15.681
44910W        W45391  16.954  14.859  15.186
44911W        W45392  14.899  14.791  16.763
44912W        W45393  14.947  15.754  16.133
44913W        W45394  17.636  14.862  16.539
44914W        W45395  15.058  15.360  15.353
44915W        W45396  17.629  15.048  16.969
44916W        W45397  15.317  15.009  16.473
44917W        W45398  16.431  15.581  17.413
44918W        W45399  14.579  15.271  14.891
44919W        W45400  15.365  16.660  17.452
44920W        W45401  16.723  16.058  16.631
44921W        W45402  14.736  16.644  14.624
44922W        W45403  15.983  16.327  17.175
44923W        W45404  17.751  14.686  17.437
44924W        W45405  17.000  16.828  15.213
44925W        W45406  16.068  14.694  14.867
44926W        W45407  17.607  17.293  14.810
44927W        W45408  15.810  17.380  17.558
44928W        W45409  17.386  16.649  16.691
44929W        W45410  15.636  15.065  17.358
44930W        W45411  15.608  17.313  15.309
44931W        W45412  17.363  16.811  15.573
44932W        W45413  15.131  15.437  17.297
44933W        W45414  16.460  17.499  15.761
44934W        W45415  16.432  14.692  17.661
44935W        W45416  17.212  17.397  16.740
44936W        W45417  17.515  17.741  16.448
44937W        W45418  16.734  17.543  14.876
44938W        W45419  14.744  17.435  17.718
44939W        W45420  15.487  15.427  16.956
44940W        W45421  15.457  14.775  16.066
44941W        W45422  17.078  15.617  16.758
44942W        W45423  15.876  16.788  14.958
44943W        W45424  15.687  15.190  16.122
44944W        W45425  15.456  16.683  16.212
44945W        W45426  16.995  16.378  16.927
44946W        W45427  14.844  16.176  14.842
44947W        W45428  15.954  14.677  17.561
44948W        W45429  17.660  17.479  16.019
44949W        W45430  17.689  16.035  15.924
44950W        W45431  15.806  15.708  16.140
44951W        W45432  16.051  15.970  17.464
44952W        W45433  17.162  17.123  17.327
44953W        W45434  15.812  15.577  17.439
44954W        W45435  15.220  17.363  14.819
44955W        W45436  17.737  17.121  15.629
44956W        W45437  15.341  15.913  17.515
44957W        W45438  15.859  16.900  15.467
44958W        W45439  16.958  16.282  17.548
44959W        W45440  16.849  15.910  17.092
44960W        W45441  15.409  16.282  17.121
44961W        W45442  15.074  14.954  17.531
44962W        W45443  15.413  15.977  16.584
44963W        W45444  15.782  15.791  14.706
44964W        W45445  14.585  17.550  17.251
44965W        W45446  16.170  16.259  16.694
44966W        W45447  15.993  15.284  14.799
44967W        W45448  15.128  16.100  15.580
44968W        W45449  17.694  16.178  15.125
44969W        W45450  17.225  17.303  15.774
44970W        W45451  17.309  17.166  15.258
44971W        W45452  16.211  16.224  15.343
44972W        W45453  17.398  15.028  14.866
44973W        W45454  17.463  15.635  17.052
44974W        W45455  15.172  16.228  16.259
44975W        W45456  15.466  17.167  15.908
44976W        W45457  17.229  15.787  15.873
44977W        W45458  16.252  15.166  16.569
44978W        W45459  15.180  17.081  15.553
44979W        W45460  17.323  16.696  14.878
44980W        W45461  16.290  14.649  15.407
44981W        W45462  17.003  15.518  16.266
44982W        W45463  14.689  17.105  16.598
44983W        W45464  15.942  15.067  15.239
44984W        W45465  16.740  15.532  15.802
44985W        W45466  16.945  16.942  16.924
44986W        W45467  15.099  17.547  17.359
44987W        W45468  15.541  15.327  15.096
44988W        W45469  17.058  15.469  15.421
44989W        W45470  17.016  17.577  17.658
44990W        W45471  15.701  16.169  16.257
44991W        W45472  16.959  16.918  16.407
44992W        W45473  15.395  16.567  15.649
44993W        W45474  15.766  17.574  17.044
44994W        W45475  16.144  14.993  16.085
44995W        W45476  14.755  16.977  15.015
44996W        W45477  16.274  15.928  14.885
44997W        W45478  14.920  16.477  15.904
44998W        W45479  16.210  15.119  17.368
44999W        W45480  16.723  16.068  16.044
45000W        W45481  16.490  14.680  15.934
45001W        W45482  15.549  17.664  15.771
45002W        W45483  16.048  15.405  16.996
45003W        W45484  15.748  14.774  16.465
45004W        W45485  14.811  17.596  15.013
45005W        W45486  16.627  16.960  15.731
45006W        W45487  14.979  16.578  15.306
45007W        W45488  14.864  15.121  16.305
45008W        W45489  16.412  17.086  16.362
45009W        W45490  14.664  14.940  15.382
45010W        W45491  17.328  16.146  17.309
45011W        W45492  17.205  15.532  14.881
45012W        W45493  16.383  17.688  16.360
45013W        W45494  17.077  14.695  14.701
45014W        W45495  14.788  15.843  15.409
45015W        W45496  15.479  15.832  15.134
45016W        W45497  15.585  16.440  16.660
45017W        W45498  17.059  14.726  15.780
45018W        W45499  17.404  17.619  17.220
45019W        W45500  17.007  16.748  15.925
45020W        W45501  16.469  14.973  14.996
45021W        W45502  15.838  16.236  14.881
45022W        W45503  16.696  16.743  14.748
45023W        W45504  17.632  16.943  17.496
45024W        W45505  17.286  17.644  14.963
45025W        W45506  15.721  15.903  17.110
45026W        W45507  14.757  15.819  17.541
45027W        W45508  16.517  16.296  17.267
45028W        W45509  14.874  17.054  15.924
45029W        W45510  15.021  16.351  16.814
45030W        W45511  17.338  16.637  17.164
45031W        W45512  17.006  15.756  17.528
45032W        W45513  16.285  17.530  17.256
45033W        W45514  17.575  17.056  16.944
45034W        W45515  15.230  17.081  16.420
45035W        W45516  17.576  16.840  16.065
45036W        W45517  15.195  17.635  16.686
45037W        W45518  16.101  17.346  15.422
45038W        W45519  15.322  16.086  14.681
  18.00000  18.00000  18.00000
