Gromacs Runs One Microsecond At Cannonball Speeds
  481
    1DT     BB2    1   9.988  10.217  10.927
    1DT     BB3    2  10.045  10.304  11.101
    1DT     SC1    3   9.801  10.346  11.186
    1DT     SC2    4   9.792  10.566  11.238
    1DT     SC3    5   9.584  10.346  11.348
    2DA     BB1    6  10.341  10.158  11.188
    2DA     BB2    7  10.306  10.463  11.380
    2DA     BB3    8  10.281  10.600  11.525
    2DA     SC1    9  10.009  10.593  11.566
    2DA     SC2   10   9.906  10.778  11.668
    2DA     SC3   11   9.708  10.614  11.726
    2DA     SC4   12   9.919  10.457  11.580
    3DT     BB1   13  10.601  10.516  11.681
    3DT     BB2   14  10.465  10.629  11.995
    3DT     BB3   15  10.392  10.616  12.180
    3DT     SC1   16  10.186  10.496  12.048
    3DT     SC2   17  10.016  10.548  12.188
    3DT     SC3   18  10.003  10.312  11.971
    4DC     BB1   19  10.765  10.691  12.228
    4DC     BB2   20  10.748  10.962  12.483
    4DC     BB3   21  10.555  10.990  12.534
    4DC     SC1   22  10.529  11.188  12.701
    4DC     SC2   23  10.621  11.152  12.906
    4DC     SC3   24  10.429  11.358  12.883
    5DC     BB1   25  10.645  11.228  12.304
    5DC     BB2   26  10.651  11.516  12.521
    5DC     BB3   27  10.722  11.653  12.653
    5DC     SC1   28  10.820  11.451  12.774
    5DC     SC2   29  10.816  11.525  12.990
    5DC     SC3   30  11.005  11.328  12.922
    6DA     BB1   31  10.681  11.925  12.457
    6DA     BB2   32  10.888  12.140  12.197
    6DA     BB3   33  10.963  12.061  12.030
    6DA     SC1   34  11.199  12.208  11.962
    6DA     SC2   35  11.324  12.050  11.837
    6DA     SC3   36  11.514  12.232  11.828
    6DA     SC4   37  11.284  12.347  11.982
    7DA     BB1   38  10.701  12.049  11.867
    7DA     BB2   39  10.908  12.210  11.607
    7DA     BB3   40  10.972  12.113  11.439
    7DA     SC1   41  11.161  11.945  11.527
    7DA     SC2   42  11.350  11.886  11.400
    7DA     SC3   43  11.336  11.652  11.522
    7DA     SC4   44  11.110  11.822  11.622
    8DT     BB1   45  10.669  12.059  11.264
    8DT     BB2   46  10.394  12.035  11.537
    8DT     BB3   47  10.227  11.990  11.458
    8DT     SC1   48  10.277  12.261  11.401
    8DT     SC2   49  10.076  12.286  11.301
    8DT     SC3   50  10.333  12.467  11.235
    9DC     BB1   51  10.307  11.668  11.632
    9DC     BB2   52  10.169  11.513  11.397
    9DC     BB3   53  10.097  11.472  11.213
    9DC     SC1   54  10.126  11.733  11.128
    9DC     SC2   55   9.925  11.772  11.030
    9DC     SC3   56  10.136  11.946  10.968
   10DG     BB1   57   9.964  11.192  11.330
   10DG     BB2   58   9.770  11.060  11.052
   10DG     BB3   59   9.647  11.131  10.930
   10DG     SC1   60   9.385  11.068  11.060
   10DG     SC2   61   9.161  10.965  10.893
   10DG     SC3   62   9.049  11.060  11.143
   10DG     SC4   63   9.333  11.129  11.203
   11DA     BB1   64   9.789  10.947  10.694
   11DA     BB2   65   9.505  10.740  10.636
   11DA     BB3   66   9.397  10.814  10.479
   11DA     SC1   67   9.281  11.033  10.584
   11DA     SC2   68   9.064  11.117  10.542
   11DA     SC3   69   9.166  11.351  10.605
   11DA     SC4   70   9.386  11.153  10.619
   12DC     BB1   71   9.566  10.755  10.189
   12DC     BB2   72   9.275  10.927  10.082
   12DC     BB3   73   9.185  11.091  10.014
   12DC     SC1   74   9.309  11.214  10.225
   12DC     SC2   75   9.167  11.390  10.246
   12DC     SC3   76   9.432  11.428  10.327
   13DA     BB1   77   9.113  10.871   9.714
   13DA     BB2   78   8.950  11.104   9.603
   13DA     BB3   79   8.920  11.296   9.550
   13DA     SC1   80   9.175  11.386   9.625
   13DA     SC2   81   9.241  11.562   9.767
   13DA     SC3   82   9.467  11.562   9.630
   13DA     SC4   83   9.291  11.349   9.515
   14DA     BB1   84   8.689  11.138   9.289
   14DA     BB2   85   8.822  11.375   9.139
   14DA     BB3   86   8.959  11.473   9.040
   14DA     SC1   87   9.206  11.354   9.140
   14DA     SC2   88   9.399  11.487   9.134
   14DA     SC3   89   9.534  11.262   9.165
   14DA     SC4   90   9.241  11.195   9.154
   15DT     BB1   91   8.767  11.730   8.884
   15DT     BB2   92   9.085  11.883   8.892
   15DT     BB3   93   9.216  11.917   8.741
   15DT     SC1   94   9.312  11.653   8.760
   15DT     SC2   95   9.536  11.685   8.782
   15DT     SC3   96   9.398  11.398   8.737
   16DT     BB1   97   9.266  12.212   8.845
   16DT     BB2   98   9.074  12.328   9.148
   16DT     BB3   99   9.182  12.305   9.315
   16DT     SC1  100   9.087  12.053   9.336
   16DT     SC2  101   9.001  12.032   9.546
   16DT     SC3  102   9.098  11.784   9.365
   17DC     BB1  103   9.358  12.575   9.397
   17DC     BB2  104   9.167  12.493   9.680
   17DC     BB3  105   9.206  12.400   9.858
   17DC     SC1  106   9.307  12.207   9.732
   17DC     SC2  107   9.219  12.015   9.815
   17DC     SC3  108   9.463  11.998   9.678
   18DA     BB1  109   9.308  12.648  10.080
   18DA     BB2  110   9.119  12.404  10.266
   18DA     BB3  111   9.208  12.332  10.424
   18DA     SC1  112   9.384  12.131  10.306
   18DA     SC2  113   9.420  11.930  10.421
   18DA     SC3  114   9.650  11.917  10.292
   18DA     SC4  115   9.510  12.169  10.208
   19DG     BB1  116   8.976  12.437  10.674
   19DG     BB2  117   8.730  12.285  10.534
   19DG     BB3  118   8.683  12.087  10.544
   19DG     SC1  119   8.918  11.957  10.486
   19DG     SC2  120   8.936  11.714  10.316
   19DG     SC3  121   9.151  11.704  10.509
   19DG     SC4  122   9.033  11.962  10.602
   20DT     BB1  123   8.422  12.066  10.776
   20DT     BB2  124   8.432  11.789  10.551
   20DT     BB3  125   8.460  11.596  10.603
   20DT     SC1  126   8.712  11.655  10.676
   20DT     SC2  127   8.830  11.483  10.588
   20DT     SC3  128   8.930  11.664  10.835
   21DC     BB1  129   8.166  11.433  10.605
   21DC     BB2  130   8.379  11.147  10.543
   21DC     BB3  131   8.496  10.988  10.582
   21DC     SC1  132   8.615  11.172  10.738
   21DC     SC2  133   8.799  11.046  10.778
   21DC     SC3  134   8.757  11.270  10.941
   22DC     BB1  135   8.163  10.795  10.573
   22DC     BB2  136   8.373  10.629  10.733
   22DC     BB3  137   8.506  10.564  10.868
   22DC     SC1  138   8.511  10.827  10.989
   22DC     SC2  139   8.732  10.823  11.045
   22DC     SC3  140   8.574  11.030  11.150
   23DA     BB1  141   8.540  10.263  10.669
   23DA     BB2  142   8.625  10.103  10.977
   23DA     BB3  143   8.505   9.996  11.104
   23DA     SC1  144   8.340  10.187  11.210
   23DA     SC2  145   8.262  10.182  11.431
   23DA     SC3  146   8.052  10.314  11.341
   23DA     SC4  147   8.235  10.262  11.108
   24DG     BB1  148   8.494   9.718  10.860
   24DG     BB2  149   8.123   9.736  10.839
   24DG     BB3  150   7.925   9.706  10.808
   24DG     SC1  151   7.813   9.930  10.719
   24DG     SC2  152   7.519   9.945  10.757
   24DG     SC3  153   7.587  10.102  10.522
   24DG     SC4  154   7.865  10.016  10.591
   25DT     BB1  155   7.983   9.386  10.646
   25DT     BB2  156   7.879   9.602  10.422
   25DT     BB3  157   7.820   9.755  10.302
   25DT     SC1  158   8.025   9.712  10.159
   25DT     SC2  159   8.081   9.921  10.093
   25DT     SC3  160   8.152   9.655   9.928
   26DG     BB1  161   7.483   9.626  10.267
   26DG     BB2  162   7.510   9.879   9.998
   26DG     BB3  163   7.460   9.839   9.805
   26DG     SC1  164   7.680   9.719   9.697
   26DG     SC2  165   7.666   9.705   9.401
   26DG     SC3  166   7.855   9.503   9.492
   26DG     SC4  167   7.782   9.609   9.762
   27DT     BB1  168   7.107   9.784   9.853
   27DT     BB2  169   7.128   9.634   9.524
   27DT     BB3  170   7.157   9.496   9.381
   27DT     SC1  171   7.378   9.466   9.509
   27DT     SC2  172   7.487   9.357   9.343
   27DT     SC3  173   7.549   9.318   9.656
   28DA     BB1  174   6.823   9.349   9.449
   28DA     BB2  175   7.066   9.106   9.363
   28DA     BB3  176   7.119   8.924   9.435
   28DA     SC1  177   7.194   8.967   9.690
   28DA     SC2  178   7.354   8.827   9.792
   28DA     SC3  179   7.219   8.867  10.016
   28DA     SC4  180   7.084   9.021   9.797
   29DC     BB1  181   6.851   8.734   9.274
   29DC     BB2  182   6.922   8.650   8.940
   29DC     BB3  183   7.061   8.598   8.823
   29DC     SC1  184   7.191   8.826   8.908
   29DC     SC2  185   7.224   8.955   8.724
   29DC     SC3  186   7.377   9.012   8.953
   30DG     BB1  187   7.001   8.365   8.608
   30DG     BB2  188   7.164   8.484   8.309
   30DG     BB3  189   7.293   8.513   8.167
   30DG     SC1  190   7.433   8.702   8.302
   30DG     SC2  191   7.652   8.813   8.136
   30DG     SC3  192   7.718   8.859   8.417
   30DG     SC4  193   7.455   8.725   8.462
   31DT     BB1  194   7.277   8.166   8.043
   31DT     BB2  195   7.627   8.193   7.952
   31DT     BB3  196   7.826   8.204   7.984
   31DT     SC1  197   7.754   8.367   8.162
   31DT     SC2  198   7.940   8.493   8.178
   31DT     SC3  199   7.730   8.452   8.417
   32DA     BB1  200   7.839   7.835   8.031
   32DA     BB2  201   7.928   7.492   7.918
   32DA     BB3  202   7.974   7.299   7.941
   32DA     SC1  203   8.200   7.322   8.062
   32DA     SC2  204   8.294   7.113   8.115
   32DA     SC3  205   8.422   7.240   8.308
   32DA     SC4  206   8.254   7.440   8.161
   33DC     BB1  207   7.698   7.152   8.086
   33DC     BB2  208   7.884   7.357   8.317
   33DC     BB3  209   7.996   7.417   8.472
   33DC     SC1  210   7.813   7.623   8.448
   33DC     SC2  211   7.925   7.767   8.584
   33DC     SC3  212   7.656   7.824   8.526
   34DT     BB1  213   8.075   7.055   8.547
   34DT     BB2  214   8.233   7.245   8.775
   34DT     BB3  215   8.191   7.272   8.970
   34DT     SC1  216   7.941   7.351   8.884
   34DT     SC2  217   7.895   7.512   9.037
   34DT     SC3  218   7.676   7.388   8.838
   35DT     BB1  219   8.451   7.082   9.120
   35DT     BB2  220   8.225   7.122   9.389
   35DT     BB3  221   8.081   7.041   9.484
   35DT     SC1  222   7.944   7.046   9.245
   35DT     SC2  223   7.753   7.159   9.287
   35DT     SC3  224   7.802   6.977   9.026
   36DA     BB1  225   8.253   7.132   9.789
   36DA     BB2  226   7.974   7.229   9.977
   36DA     BB3  227   7.810   7.168  10.051
   36DA     SC1  228   7.701   7.121   9.773
   36DA     SC2  229   7.537   7.236   9.647
   36DA     SC3  230   7.523   7.016   9.501
   36DA     SC4  231   7.729   6.971   9.712
   37DA     BB1  232   7.783   7.406  10.253
   37DA     BB2  233   7.476   7.488  10.059
   37DA     BB3  234   7.291   7.402  10.055
   37DA     SC1  235   7.330   7.182   9.890
   37DA     SC2  236   7.194   7.106   9.713
   37DA     SC3  237   7.304   6.870   9.755
   37DA     SC4  238   7.417   7.061   9.956
   38DT     BB1  239   7.141   7.474  10.361
   38DT     BB2  240   6.910   7.334  10.115
   38DT     BB3  241   6.827   7.148  10.094
   38DT     SC1  242   7.055   7.051  10.112
   38DT     SC2  243   7.041   6.872   9.975
   38DT     SC3  244   7.258   6.901  10.209
   39DC     BB1  245   6.517   7.229  10.190
   39DC     BB2  246   6.369   7.007   9.969
   39DC     BB3  247   6.408   6.840   9.856
   39DC     SC1  248   6.598   6.928   9.695
   39DC     SC2  249   6.515   7.018   9.504
   39DC     SC3  250   6.785   6.948   9.507
   40DA     BB1  251   6.348   6.598  10.114
   40DA     BB2  252   6.666   6.494  10.043
   40DA     BB3  253   6.856   6.478  10.106
   40DA     SC1  254   6.877   6.695  10.258
   40DA     SC2  255   7.079   6.677  10.380
   40DA     SC3  256   6.981   6.868  10.535
   40DA     SC4  257   6.777   6.807  10.324
   41DT     BB1  258   6.830   6.115  10.176
   41DT     BB2  259   6.872   5.806   9.996
   41DT     BB3  260   6.830   5.627   9.911
   41DT     SC1  261   6.759   5.552  10.147
   41DT     SC2  262   6.825   5.336  10.153
   41DT     SC3  263   6.590   5.458  10.336
   42DT     BB1  264   6.696   5.830   9.620
   42DT     BB2  265   6.738   6.185   9.702
   42DT     BB3  266   6.882   6.298   9.609
   42DT     SC1  267   7.060   6.158   9.738
   42DT     SC2  268   7.209   6.309   9.817
   42DT     SC3  269   7.278   5.999   9.764
   43DT     BB1  270   6.580   6.338   9.380
   43DT     BB2  271   6.740   6.553   9.190
   43DT     BB3  272   6.878   6.659   9.087
   43DT     SC1  273   7.091   6.591   9.225
   43DT     SC2  274   7.149   6.751   9.374
   43DT     SC3  275   7.336   6.501   9.297
   44DT     BB1  276   6.697   6.776   8.836
   44DT     BB2  277   6.746   7.065   9.046
   44DT     BB3  278   6.845   7.228   9.085
   44DT     SC1  279   7.060   7.063   9.131
   44DT     SC2  280   7.152   7.146   9.321
   44DT     SC3  281   7.297   6.935   9.125
   45DA     BB1  282   6.582   7.466   9.011
   45DA     BB2  283   6.896   7.641   9.061
   45DA     BB3  284   7.044   7.741   9.002
   45DA     SC1  285   7.218   7.493   9.021
   45DA     SC2  286   7.378   7.438   9.185
   45DA     SC3  287   7.434   7.230   9.034
   45DA     SC4  288   7.219   7.385   8.898
   46DG     BB1  289   6.899   8.028   9.171
   46DG     BB2  290   7.141   7.997   9.407
   46DG     BB3  291   7.327   7.977   9.481
   46DG     SC1  292   7.443   7.848   9.280
   46DG     SC2  293   7.717   7.750   9.344
   46DG     SC3  294   7.698   7.784   9.057
   46DG     SC4  295   7.423   7.878   9.121
   47DG     BB1  296   7.333   8.323   9.616
   47DG     BB2  297   7.618   8.248   9.498
   47DG     BB3  298   7.772   8.172   9.393
   47DG     SC1  299   7.711   8.149   9.128
   47DG     SC2  300   7.931   7.999   8.994
   47DG     SC3  301   7.761   8.114   8.788
   47DG     SC4  302   7.613   8.226   9.022
   48DA     BB1  303   8.039   8.326   9.564
   48DA     BB2  304   8.055   8.352   9.235
   48DA     BB3  305   8.042   8.434   9.051
   48DA     SC1  306   7.894   8.660   9.133
   48DA     SC2  307   7.689   8.746   9.056
   48DA     SC3  308   7.775   8.979   9.147
   48DA     SC4  309   7.987   8.775   9.201
   49DG     BB1  310   8.346   8.194   9.030
   49DG     BB2  311   8.601   8.420   9.191
   49DG     BB3  312   8.787   8.457   9.118
   49DG     SC1  313   8.930   8.239   9.198
   49DG     SC2  314   9.225   8.272   9.193
   49DG     SC3  315   9.165   7.987   9.185
   49DG     SC4  316   8.882   8.083   9.189
   50DG     BB1  317   8.681   8.629   8.819
   50DG     BB2  318   9.053   8.642   8.780
   50DG     BB3  319   9.151   8.569   8.616
   50DG     SC1  320   9.192   8.302   8.687
   50DG     SC2  321   9.446   8.150   8.661
   50DG     SC3  322   9.226   7.960   8.659
   50DG     SC4  323   9.060   8.206   8.685
   51DT     BB1  324   8.929   8.848   8.457
   51DT     BB2  325   9.115   8.834   8.231
   51DT     BB3  326   9.274   8.757   8.134
   51DT     SC1  327   9.173   8.484   8.203
   51DT     SC2  328   9.376   8.397   8.152
   51DT     SC3  329   9.121   8.219   8.237
   52DG     BB1  330   9.413   9.059   8.232
   52DG     BB2  331   9.658   8.985   8.096
   52DG     BB3  332   9.807   8.872   8.016
   52DG     SC1  333   9.658   8.644   7.917
   52DG     SC2  334   9.743   8.363   7.961
   52DG     SC3  335   9.542   8.365   7.750
   52DG     SC4  336   9.547   8.660   7.799
   53DG     BB1  337  10.009   9.191   8.056
   53DG     BB2  338  10.256   8.981   7.967
   53DG     BB3  339  10.324   8.941   7.779
   53DG     SC1  340  10.105   8.848   7.646
   53DG     SC2  341  10.132   8.638   7.438
   53DG     SC3  342   9.891   8.792   7.381
   53DG     SC4  343   9.975   8.945   7.623
   54DA     BB1  344  10.633   9.068   7.819
   54DA     BB2  345  10.604   9.111   7.464
   54DA     BB3  346  10.542   9.219   7.312
   54DA     SC1  347  10.266   9.209   7.370
   54DA     SC2  348  10.112   9.250   7.196
   54DA     SC3  349   9.946   9.326   7.385
   54DA     SC4  350  10.204   9.247   7.516
   55DA     BB1  351  10.906   9.300   7.252
   55DA     BB2  352  10.748   9.558   7.131
   55DA     BB3  353  10.639   9.722   7.142
   55DA     SC1  354  10.460   9.622   7.353
   55DA     SC2  355  10.224   9.627   7.353
   55DA     SC3  356  10.241   9.597   7.614
   55DA     SC4  357  10.520   9.604   7.504
   56DG     BB1  358  10.817   9.925   6.900
   56DG     BB2  359  10.727   9.948   6.530
   56DG     BB3  360  10.819   9.806   6.440
   56DG     SC1  361  10.886   9.928   6.184
   56DG     SC2  362  10.961   9.721   5.984
   56DG     SC3  363  11.056   9.980   5.888
   56DG     SC4  364  10.935  10.078   6.143
   57DG     BB1  365  10.568   9.614   6.516
   57DG     BB2  366  10.348   9.791   6.753
   57DG     BB3  367  10.217   9.923   6.832
   57DG     SC1  368  10.370  10.143   6.858
   57DG     SC2  369  10.317  10.344   7.070
   57DG     SC3  370  10.443  10.480   6.847
   57DG     SC4  371  10.440  10.208   6.725
   58DG     BB1  372   9.969   9.773   6.592
   58DG     BB2  373   9.723  10.057   6.582
   58DG     BB3  374   9.686  10.164   6.413
   58DG     SC1  375   9.863  10.379   6.431
   58DG     SC2  376   9.790  10.655   6.347
   58DG     SC3  377  10.080  10.635   6.350
   58DG     SC4  378  10.025  10.353   6.432
   59DG     BB1  379   9.597   9.855   6.222
   59DG     BB2  380   9.724  10.083   5.988
   59DG     BB3  381   9.821  10.215   5.864
   59DG     SC1  382  10.002  10.337   6.025
   59DG     SC2  383  10.059  10.627   6.008
   59DG     SC3  384  10.309  10.489   6.070
   59DG     SC4  385  10.133  10.247   6.063
   60DC     BB1  386   9.718   9.928   5.632
   60DC     BB2  387   9.684   9.696   5.453
   60DC     BB3  388   9.714   9.504   5.394
   60DC     SC1  389   9.585   9.331   5.580
   60DC     SC2  390   9.412   9.390   5.440
   60DC     SC3  391   9.398   9.139   5.576
   61DT     BB1  392   9.812   9.512   5.058
   61DT     BB2  393  10.007   9.202   5.149
   61DT     BB3  394  10.033   9.094   5.302
   61DT     SC1  395  10.283   9.205   5.414
   61DT     SC2  396  10.188   9.412   5.408
   61DT     SC3  397  10.464   9.345   5.560
   62DC     BB1  398   9.879   8.815   5.129
   62DC     BB2  399  10.083   8.613   5.275
   62DC     BB3  400  10.194   8.542   5.431
   62DC     SC1  401  10.079   8.739   5.549
   62DC     SC2  402  10.219   8.740   5.728
   62DC     SC3  403   9.958   8.836   5.767
   63DG     BB1  404   9.959   8.290   5.520
   63DG     BB2  405  10.236   8.196   5.750
   63DG     BB3  406  10.281   8.071   5.908
   63DG     SC1  407  10.187   8.165   6.135
   63DG     SC2  408  10.318   8.043   6.373
   63DG     SC3  409  10.043   8.109   6.444
   63DG     SC4  410  10.032   8.208   6.162
   64DA     BB1  411  10.037   7.839   5.877
   64DA     BB2  412   9.706   7.791   5.997
   64DA     BB3  413   9.530   7.693   5.997
   64DA     SC1  414   9.489   7.671   5.734
   64DA     SC2  415   9.274   7.645   5.643
   64DA     SC3  416   9.395   7.530   5.438
   64DA     SC4  417   9.605   7.609   5.636
   65DA     BB1  418   9.718   7.513   6.277
   65DA     BB2  419   9.457   7.332   6.275
   65DA     BB3  420   9.297   7.230   6.209
   65DA     SC1  421   9.294   7.305   5.945
   65DA     SC2  422   9.091   7.297   5.826
   65DA     SC3  423   9.239   7.242   5.614
   65DA     SC4  424   9.423   7.282   5.848
   66DG     BB1  425   9.393   7.041   6.532
   66DG     BB2  426   9.630   6.794   6.379
   66DG     BB3  427   9.652   6.606   6.458
   66DG     SC1  428   9.887   6.635   6.623
   66DG     SC2  429  10.052   6.393   6.674
   66DG     SC3  430  10.120   6.593   6.875
   66DG     SC4  431   9.916   6.755   6.731
   67DT     BB1  432   9.325   6.476   6.362
   67DT     BB2  433   9.443   6.324   6.669
   67DT     BB3  434   9.491   6.265   6.857
   67DT     SC1  435   9.636   6.465   6.877
   67DT     SC2  436   9.814   6.392   6.995
   67DT     SC3  437   9.711   6.697   6.994
   68DT     BB1  438   9.171   6.220   6.999
   68DT     BB2  439   9.427   6.065   7.210
   68DT     BB3  440   9.494   6.115   7.396
   68DT     SC1  441   9.578   6.330   7.308
   68DT     SC2  442   9.775   6.362   7.417
   68DT     SC3  443   9.579   6.600   7.323
   69DA     BB1  444   9.259   5.890   7.524
   69DA     BB2  445   9.461   5.977   7.793
   69DA     BB3  446   9.416   6.088   7.960
   69DA     SC1  447   9.375   6.347   7.879
   69DA     SC2  448   9.434   6.518   8.028
   69DA     SC3  449   9.226   6.650   7.932
   69DA     SC4  450   9.245   6.386   7.788
   70DT     BB1  451   9.339   5.729   8.072
   70DT     BB2  452   9.676   5.616   7.988
   70DT     BB3  453   9.877   5.592   7.980
   70DT     SC1  454   9.890   5.777   7.796
   70DT     SC2  455  10.043   5.695   7.651
   70DT     SC3  456   9.958   6.005   7.667
   71DC     BB1  457   9.915   5.571   8.347
   71DC     BB2  458  10.245   5.626   8.174
   71DC     BB3  459  10.355   5.786   8.233
   71DC     SC1  460  10.256   5.939   8.033
   71DC     SC2  461  10.429   6.001   7.900
   71DC     SC3  462  10.195   6.157   7.892
   72DT     BB1  463  10.539   5.724   8.497
   72DT     BB2  464  10.776   5.894   8.291
   72DT     BB3  465  10.883   6.048   8.249
   72DT     SC1  466  10.641   6.176   8.167
   72DT     SC2  467  10.743   6.319   8.024
   72DT     SC3  468  10.443   6.356   8.134
   73DC     BB1  469  11.175   5.836   8.249
   73DC     BB2  470  11.389   5.785   7.957
   73DC     BB3  471  11.474   5.666   7.832
   73DC     SC1  472  11.632   5.605   8.052
   73DC     SC2  473  11.832   5.563   7.953
   73DC     SC3  474  11.793   5.464   8.213
   74DA     BB1  475  11.460   5.834   7.576
   74DA     BB2  476  11.234   5.937   7.315
   74DA     BB3  477  11.188   5.968   7.136
   74DA     SC1  478  11.288   6.240   7.124
   74DA     SC2  479  11.212   6.372   6.945
   74DA     SC3  480  11.434   6.513   6.979
   74DA     SC4  481  11.430   6.294   7.185
  18.00000  18.00000  18.00000
