Gyas ROwers Mature At Cryogenic Speed
  481
    1DT     BB2    1  10.948  10.942  11.702
    1DT     BB3    2  11.054  10.862  11.549
    1DT     SC1    3  11.005  10.630  11.640
    1DT     SC2    4  11.203  10.520  11.647
    1DT     SC3    5  10.917  10.375  11.633
    2DG     BB1    6  11.024  11.073  11.282
    2DG     BB2    7  11.104  10.724  11.174
    2DG     BB3    8  11.116  10.552  11.068
    2DG     SC1    9  10.963  10.379  11.218
    2DG     SC2   10  11.017  10.086  11.211
    2DG     SC3   11  10.748  10.125  11.307
    2DG     SC4   12  10.810  10.413  11.261
    3DC     BB1   13  11.156  10.681  10.746
    3DC     BB2   14  11.203  10.322  10.744
    3DC     BB3   15  11.081  10.184  10.660
    3DC     SC1   16  10.900  10.238  10.828
    3DC     SC2   17  10.828  10.045  10.925
    3DC     SC3   18  10.658  10.269  10.936
    4DA     BB1   19  11.255  10.128  10.386
    4DA     BB2   20  11.098   9.848  10.375
    4DA     BB3   21  10.957   9.722  10.361
    4DA     SC1   22  10.777   9.902  10.508
    4DA     SC2   23  10.627   9.838  10.675
    4DA     SC3   24  10.524  10.079  10.651
    4DA     SC4   25  10.743  10.051  10.450
    5DT     BB1   26  11.069   9.447  10.199
    5DT     BB2   27  10.730   9.371  10.270
    5DT     BB3   28  10.533   9.366  10.240
    5DT     SC1   29  10.542   9.635  10.249
    5DT     SC2   30  10.415   9.708  10.421
    5DT     SC3   31  10.538   9.900  10.195
    6DA     BB1   32  10.479   9.087  10.364
    6DA     BB2   33  10.138   9.186  10.301
    6DA     BB3   34   9.986   9.207  10.184
    6DA     SC1   35  10.070   9.485  10.101
    6DA     SC2   36   9.958   9.689  10.134
    6DA     SC3   37  10.141   9.796   9.979
    6DA     SC4   38  10.197   9.501  10.000
    7DC     BB1   39   9.728   9.042  10.265
    7DC     BB2   40   9.609   9.357  10.151
    7DC     BB3   41   9.526   9.478  10.028
    7DC     SC1   42   9.773   9.487   9.893
    7DC     SC2   43   9.781   9.707   9.837
    7DC     SC3   44   9.978   9.539   9.732
    8DG     BB1   45   9.234   9.583  10.155
    8DG     BB2   46   9.197   9.546   9.794
    8DG     BB3   47   9.132   9.492   9.612
    8DG     SC1   48   9.340   9.354   9.505
    8DG     SC2   49   9.321   9.319   9.211
    8DG     SC3   50   9.492   9.111   9.316
    8DG     SC4   51   9.431   9.240   9.578
    9DG     BB1   52   8.790   9.456   9.711
    9DG     BB2   53   8.872   9.263   9.401
    9DG     BB3   54   8.878   9.066   9.343
    9DG     SC1   55   9.134   8.973   9.366
    9DG     SC2   56   9.233   8.771   9.172
    9DG     SC3   57   9.399   8.756   9.410
    9DG     SC4   58   9.215   8.970   9.508
   10DT     BB1   59   8.705   8.955   9.616
   10DT     BB2   60   8.547   8.712   9.409
   10DT     BB3   61   8.509   8.656   9.215
   10DT     SC1   62   8.398   8.916   9.210
   10DT     SC2   63   8.236   8.867   8.962
   10DT     SC3   64   8.370   9.233   9.078
   11DC     BB1   65   8.753   8.400   9.329
   11DC     BB2   66   8.526   8.372   9.587
   11DC     BB3   67   8.365   8.394   9.708
   11DC     SC1   68   8.445   8.661   9.807
   11DC     SC2   69   8.269   8.708   9.672
   11DC     SC3   70   8.371   8.916   9.828
   12DC     BB1   71   8.152   8.162   9.550
   12DC     BB2   72   7.916   8.378   9.720
   12DC     BB3   73   7.765   8.493   9.792
   12DC     SC1   74   7.901   8.718   9.767
   12DC     SC2   75   7.925   8.813   9.971
   12DC     SC3   76   7.969   8.973   9.745
   13DT     BB1   77   7.574   8.336   9.518
   13DT     BB2   78   7.379   8.410   9.797
   13DT     BB3   79   7.276   8.497   9.942
   13DT     SC1   80   7.460   8.555  10.143
   13DT     SC2   81   7.610   8.386  10.154
   13DT     SC3   82   7.645   8.662  10.311
   14DC     BB1   83   6.960   8.476   9.782
   14DC     BB2   84   6.970   8.809   9.933
   14DC     BB3   85   6.962   9.007   9.972
   14DC     SC1   86   7.181   9.007  10.130
   14DC     SC2   87   7.111   9.098  10.325
   14DC     SC3   88   7.378   9.140  10.250
   15DA     BB1   89   6.725   9.127   9.747
   15DA     BB2   90   6.504   9.218   9.973
   15DA     BB3   91   6.632   9.204  10.117
   15DA     SC1   92   6.621   8.931  10.207
   15DA     SC2   93   6.686   8.948  10.432
   15DA     SC3   94   6.769   8.700  10.410
   15DA     SC4   95   6.639   8.778  10.152
   16DC     BB1   96   6.594   9.580  10.098
   16DC     BB2   97   6.392   9.578  10.357
   16DC     BB3   98   6.472   9.611  10.541
   16DC     SC1   99   6.625   9.397  10.515
   16DC     SC2  100   6.584   9.257  10.688
   16DC     SC3  101   6.828   9.228  10.552
   17DT     BB1  102   6.248   9.890  10.527
   17DT     BB2  103   6.138   9.673  10.773
   17DT     BB3  104   5.996   9.707  10.913
   17DT     SC1  105   6.133   9.900  11.011
   17DT     SC2  106   6.150   9.863  11.233
   17DT     SC3  107   6.116  10.153  11.099
   18DT     BB1  108   5.838   9.461  10.705
   18DT     BB2  109   6.081   9.327  10.935
   18DT     BB3  110   6.136   9.303  11.118
   18DT     SC1  111   6.350   9.514  11.096
   18DT     SC2  112   6.364   9.498  11.322
   18DT     SC3  113   6.501   9.732  11.153
   19DA     BB1  114   6.105   8.966  11.056
   19DA     BB2  115   6.436   9.006  11.006
   19DA     BB3  116   6.632   9.044  11.039
   19DA     SC1  117   6.651   9.262  11.204
   19DA     SC2  118   6.827   9.415  11.180
   19DA     SC3  119   6.815   9.444  11.441
   19DA     SC4  120   6.602   9.249  11.359
   20DG     BB1  121   6.657   8.666  11.012
   20DG     BB2  122   6.835   8.729  11.311
   20DG     BB3  123   6.986   8.760  11.413
   20DG     SC1  124   6.982   8.532  11.583
   20DG     SC2  125   7.249   8.530  11.713
   20DG     SC3  126   7.149   8.257  11.707
   20DG     SC4  127   6.914   8.384  11.574
   21DG     BB1  128   7.064   9.064  11.471
   21DG     BB2  129   7.240   9.011  11.192
   21DG     BB3  130   7.428   8.971  11.127
   21DG     SC1  131   7.315   8.876  10.880
   21DG     SC2  132   7.021   8.864  10.814
   21DG     SC3  133   7.168   8.842  10.568
   21DG     SC4  134   7.407   8.863  10.745
   22DT     BB1  135   7.617   9.217  11.286
   22DT     BB2  136   7.564   9.329  10.938
   22DT     BB3  137   7.537   9.444  10.777
   22DT     SC1  138   7.286   9.325  10.754
   22DT     SC2  139   7.263   9.418  10.550
   22DT     SC3  140   7.026   9.392  10.764
   23DG     BB1  141   7.800   9.674  10.788
   23DG     BB2  142   7.922   9.602  10.481
   23DG     BB3  143   7.778   9.477  10.458
   23DG     SC1  144   7.900   9.223  10.535
   23DG     SC2  145   7.856   9.042  10.304
   23DG     SC3  146   7.924   8.878  10.534
   23DG     SC4  147   7.944   9.141  10.671
   24DA     BB1  148   7.641   9.765  10.249
   24DA     BB2  149   7.790   9.663   9.941
   24DA     BB3  150   7.661   9.570   9.815
   24DA     SC1  151   7.697   9.291   9.868
   24DA     SC2  152   7.629   9.150   9.693
   24DA     SC3  153   7.618   8.959   9.874
   24DA     SC4  154   7.702   9.212  10.011
   25DG     BB1  155   7.602   9.913   9.683
   25DG     BB2  156   7.754   9.867   9.395
   25DG     BB3  157   7.805   9.690   9.448
   25DG     SC1  158   8.058   9.709   9.584
   25DG     SC2  159   8.145   9.425   9.572
   25DG     SC3  160   8.299   9.557   9.779
   25DG     SC4  161   8.145   9.796   9.691
   26DG     BB1  162   7.534   9.620   9.189
   26DG     BB2  163   7.762   9.489   8.997
   26DG     BB3  164   7.802   9.291   8.977
   26DG     SC1  165   7.974   9.211   9.189
   26DG     SC2  166   8.260   9.043   9.095
   26DG     SC3  167   8.155   9.018   9.395
   26DG     SC4  168   7.942   9.218   9.348
   27DA     BB1  169   7.505   9.239   8.767
   27DA     BB2  170   7.637   9.139   8.503
   27DA     BB3  171   7.809   9.058   8.534
   27DA     SC1  172   7.978   9.283   8.607
   27DA     SC2  173   8.195   9.192   8.623
   27DA     SC3  174   8.279   9.441   8.640
   27DA     SC4  175   7.980   9.446   8.620
   28DG     BB1  176   7.621   8.827   8.303
   28DG     BB2  177   7.775   8.933   7.998
   28DG     BB3  178   7.880   9.090   8.010
   28DG     SC1  179   7.870   9.200   7.746
   28DG     SC2  180   7.960   9.481   7.789
   28DG     SC3  181   7.864   9.459   7.517
   28DG     SC4  182   7.816   9.174   7.594
   29DA     BB1  183   8.112   8.917   8.166
   29DA     BB2  184   8.261   8.648   8.068
   29DA     BB3  185   8.395   8.508   8.009
   29DA     SC1  186   8.416   8.386   8.242
   29DA     SC2  187   8.196   8.323   8.302
   29DA     SC3  188   8.311   8.135   8.447
   29DA     SC4  189   8.526   8.285   8.310
   30DA     BB1  190   8.267   8.398   7.702
   30DA     BB2  191   8.546   8.196   7.814
   30DA     BB3  192   8.569   8.001   7.871
   30DA     SC1  193   8.437   7.978   8.103
   30DA     SC2  194   8.503   7.817   8.260
   30DA     SC3  195   8.253   7.816   8.340
   30DA     SC4  196   8.277   8.011   8.112
   31DT     BB1  197   8.640   7.814   7.602
   31DT     BB2  198   8.888   7.683   7.818
   31DT     BB3  199   8.943   7.536   7.922
   31DT     SC1  200   8.693   7.576   8.034
   31DT     SC2  201   8.737   7.465   8.226
   31DT     SC3  202   8.442   7.518   8.111
   32DG     BB1  203   9.272   7.563   7.766
   32DG     BB2  204   9.210   7.254   7.810
   32DG     BB3  205   9.158   7.072   7.882
   32DG     SC1  206   8.888   7.129   8.001
   32DG     SC2  207   8.827   7.113   8.292
   32DG     SC3  208   8.575   7.122   8.149
   32DG     SC4  209   8.752   7.134   7.909
   33DG     BB1  210   9.432   6.870   7.834
   33DG     BB2  211   9.231   6.678   8.060
   33DG     BB3  212   9.103   6.556   8.157
   33DG     SC1  213   8.867   6.670   8.113
   33DG     SC2  214   8.640   6.577   8.281
   33DG     SC3  215   8.534   6.665   8.025
   33DG     SC4  216   8.820   6.723   7.966
   34DA     BB1  217   9.242   6.232   8.076
   34DA     BB2  218   8.906   6.227   8.163
   34DA     BB3  219   8.756   6.144   8.059
   34DA     SC1  220   8.718   6.330   7.846
   34DA     SC2  221   8.509   6.412   7.780
   34DA     SC3  222   8.630   6.496   7.562
   34DA     SC4  223   8.833   6.352   7.733
   35DA     BB1  224   8.740   5.815   8.156
   35DA     BB2  225   8.430   5.960   8.073
   35DA     BB3  226   8.287   5.939   7.931
   35DA     SC1  227   8.400   6.072   7.703
   35DA     SC2  228   8.287   6.224   7.565
   35DA     SC3  229   8.479   6.179   7.390
   35DA     SC4  230   8.530   6.006   7.629
   36DA     BB1  231   8.065   5.714   8.049
   36DA     BB2  232   7.881   5.997   7.922
   36DA     BB3  233   7.767   5.995   7.754
   36DA     SC1  234   7.966   6.006   7.558
   36DA     SC2  235   7.973   6.141   7.367
   36DA     SC3  236   8.175   5.990   7.289
   36DA     SC4  237   8.074   5.883   7.550
   37DC     BB1  238   7.489   5.948   7.944
   37DC     BB2  239   7.338   5.931   7.597
   37DC     BB3  240   7.191   5.984   7.469
   37DC     SC1  241   7.171   5.739   7.435
   37DC     SC2  242   7.084   5.735   7.226
   37DC     SC3  243   7.030   5.517   7.394
   38DG     BB1  244   7.002   6.222   7.619
   38DG     BB2  245   7.200   6.461   7.437
   38DG     BB3  246   7.169   6.447   7.245
   38DG     SC1  247   7.362   6.257   7.152
   38DG     SC2  248   7.328   6.251   6.861
   38DG     SC3  249   7.470   6.010   6.939
   38DG     SC4  250   7.451   6.133   7.211
   39DC     BB1  251   7.150   6.740   7.141
   39DC     BB2  252   7.444   6.781   7.232
   39DC     BB3  253   7.635   6.717   7.251
   39DC     SC1  254   7.725   6.852   7.037
   39DC     SC2  255   7.867   6.696   6.953
   39DC     SC3  256   7.925   6.964   6.903
   40DA     BB1  257   7.694   6.667   7.585
   40DA     BB2  258   7.797   6.459   7.905
   40DA     BB3  259   7.873   6.566   8.035
   40DA     SC1  260   8.058   6.379   8.146
   40DA     SC2  261   7.942   6.280   8.326
   40DA     SC3  262   8.176   6.190   8.407
   40DA     SC4  263   8.219   6.349   8.155
   41DC     BB1  264   7.624   6.754   8.189
   41DC     BB2  265   7.770   6.614   8.467
   41DC     BB3  266   7.932   6.658   8.581
   41DC     SC1  267   8.059   6.713   8.373
   41DC     SC2  268   8.260   6.608   8.385
   41DC     SC3  269   8.248   6.847   8.240
   42DC     BB1  270   7.795   6.849   8.851
   42DC     BB2  271   8.115   6.817   8.897
   42DC     BB3  272   8.179   7.006   8.907
   42DC     SC1  273   8.190   7.053   8.632
   42DC     SC2  274   8.409   7.041   8.572
   42DC     SC3  275   8.228   7.147   8.385
   43DA     BB1  276   8.300   6.923   9.227
   43DA     BB2  277   8.593   7.097   9.153
   43DA     BB3  278   8.674   7.267   9.127
   43DA     SC1  279   8.567   7.306   8.847
   43DA     SC2  280   8.697   7.336   8.654
   43DA     SC3  281   8.473   7.414   8.538
   43DA     SC4  282   8.409   7.342   8.821
   44DT     BB1  283   8.951   7.305   9.301
   44DT     BB2  284   9.021   7.503   9.017
   44DT     BB3  285   9.059   7.623   8.856
   44DT     SC1  286   8.803   7.616   8.808
   44DT     SC2  287   8.825   7.678   8.592
   44DT     SC3  288   8.556   7.715   8.761
   45DT     BB1  289   9.279   7.826   9.075
   45DT     BB2  290   9.208   8.014   8.822
   45DT     BB3  291   9.118   8.134   8.694
   45DT     SC1  292   8.883   8.022   8.798
   45DT     SC2  293   8.751   8.054   8.618
   45DT     SC3  294   8.640   8.013   8.916
   46DA     BB1  295   9.293   8.107   8.453
   46DA     BB2  296   9.059   8.334   8.285
   46DA     BB3  297   9.022   8.516   8.251
   46DA     SC1  298   8.875   8.547   8.511
   46DA     SC2  299   8.649   8.605   8.542
   46DA     SC3  300   8.710   8.639   8.795
   46DA     SC4  301   8.960   8.554   8.651
   47DT     BB1  302   8.882   8.491   7.987
   47DT     BB2  303   8.780   8.796   8.151
   47DT     BB3  304   8.751   8.983   8.223
   47DT     SC1  305   8.887   8.920   8.461
   47DT     SC2  306   8.756   9.035   8.604
   47DT     SC3  307   9.048   8.923   8.679
   48DT     BB1  308   8.691   9.167   7.931
   48DT     BB2  309   8.777   9.429   8.155
   48DT     BB3  310   8.851   9.578   8.273
   48DT     SC1  311   8.995   9.386   8.392
   48DT     SC2  312   9.002   9.464   8.604
   48DT     SC3  313   9.173   9.213   8.497
   49DA     BB1  314   8.785   9.773   7.950
   49DA     BB2  315   8.972   9.978   8.083
   49DA     BB3  316   9.125  10.034   8.202
   49DA     SC1  317   9.190   9.791   8.313
   49DA     SC2  318   9.250   9.750   8.536
   49DA     SC3  319   9.361   9.529   8.447
   49DA     SC4  320   9.239   9.671   8.213
   50DT     BB1  321   9.132  10.351   8.086
   50DT     BB2  322   9.414  10.333   8.172
   50DT     BB3  323   9.546  10.303   8.021
   50DT     SC1  324   9.440  10.076   7.926
   50DT     SC2  325   9.555   9.896   8.000
   50DT     SC3  326   9.334   9.885   7.766
   51DG     BB1  327   9.645  10.660   8.073
   51DG     BB2  328   9.968  10.560   8.075
   51DG     BB3  329  10.116  10.516   7.977
   51DG     SC1  330   9.971  10.263   7.886
   51DG     SC2  331  10.006   9.983   7.983
   51DG     SC3  332   9.835   9.976   7.749
   51DG     SC4  333   9.873  10.272   7.755
   52DG     BB1  334  10.396  10.658   8.092
   52DG     BB2  335  10.514  10.363   8.240
   52DG     BB3  336  10.609  10.211   8.145
   52DG     SC1  337  10.407  10.120   7.973
   52DG     SC2  338  10.336   9.839   7.889
   52DG     SC3  339  10.223  10.025   7.697
   52DG     SC4  340  10.355  10.229   7.863
   53DT     BB1  341  10.934  10.352   8.102
   53DT     BB2  342  10.955  10.003   8.063
   53DT     BB3  343  10.960   9.884   7.899
   53DT     SC1  344  10.763  10.008   7.812
   53DT     SC2  345  10.665   9.846   7.690
   53DT     SC3  346  10.634  10.161   7.631
   54DT     BB1  347  11.281   9.824   7.815
   54DT     BB2  348  11.072   9.780   7.526
   54DT     BB3  349  11.104   9.902   7.373
   54DT     SC1  350  10.999  10.101   7.516
   54DT     SC2  351  10.878  10.213   7.362
   54DT     SC3  352  11.033  10.354   7.606
   55DA     BB1  353  11.278   9.744   7.132
   55DA     BB2  354  10.969   9.821   6.918
   55DA     BB3  355  11.038   9.915   6.771
   55DA     SC1  356  10.972  10.157   6.939
   55DA     SC2  357  10.798  10.315   6.927
   55DA     SC3  358  10.932  10.449   7.110
   55DA     SC4  359  11.088  10.204   7.044
   56DC     BB1  360  11.026   9.759   6.494
   56DC     BB2  361  10.861  10.070   6.443
   56DC     BB3  362  10.807  10.261   6.405
   56DC     SC1  363  10.964  10.322   6.603
   56DC     SC2  364  10.869  10.518   6.666
   56DC     SC3  365  11.125  10.460   6.764
   57DT     BB1  366  10.690  10.167   6.099
   57DT     BB2  367  10.608  10.469   5.977
   57DT     BB3  368  10.585  10.626   5.851
   57DT     SC1  369  10.797  10.541   5.722
   57DT     SC2  370  10.870  10.742   5.647
   57DT     SC3  371  10.934  10.463   5.503
   58DT     BB1  372  10.228  10.633   5.837
   58DT     BB2  373  10.176  10.739   6.128
   58DT     BB3  374  10.212  10.929   6.124
   58DT     SC1  375  10.509  10.867   6.161
   58DT     SC2  376  10.543  11.012   5.990
   58DT     SC3  377  10.778  10.853   6.137
   59DT     BB1  378  10.057  11.110   6.316
   59DT     BB2  379  10.202  11.017   6.558
   59DT     BB3  380  10.358  10.934   6.659
   59DT     SC1  381  10.402  11.171   6.770
   59DT     SC2  382  10.624  11.208   6.747
   59DT     SC3  383  10.430  11.386   6.929
   60DT     BB1  384  10.232  10.607   6.713
   60DT     BB2  385  10.377  10.239   6.653
   60DT     BB3  386  10.296  10.115   6.765
   60DT     SC1  387  10.525   9.982   6.891
   60DT     SC2  388  10.502   9.820   6.734
   60DT     SC3  389  10.654   9.778   7.013
   61DA     BB1  390   9.982  10.037   6.661
   61DA     BB2  391  10.122   9.713   6.748
   61DA     BB3  392  10.106   9.609   6.923
   61DA     SC1  393  10.259   9.759   7.091
   61DA     SC2  394  10.411   9.684   7.254
   61DA     SC3  395  10.374   9.919   7.366
   61DA     SC4  396  10.199   9.906   7.127
   62DC     BB1  397   9.790   9.469   6.922
   62DC     BB2  398   9.996   9.323   7.177
   62DC     BB3  399   9.936   9.338   7.362
   62DC     SC1  400   9.988   9.605   7.353
   62DC     SC2  401  10.113   9.646   7.539
   62DC     SC3  402   9.994   9.865   7.406
   63DC     BB1  403   9.962   8.987   7.388
   63DC     BB2  404   9.936   9.060   7.707
   63DC     BB3  405   9.849   9.125   7.863
   63DC     SC1  406   9.783   9.367   7.749
   63DC     SC2  407   9.923   9.528   7.827
   63DC     SC3  408   9.689   9.609   7.691
   64DA     BB1  409  10.005   8.875   8.060
   64DA     BB2  410  10.132   9.115   8.203
   64DA     BB3  411  10.060   9.250   8.338
   64DA     SC1  412   9.828   9.351   8.194
   64DA     SC2  413   9.785   9.567   8.111
   64DA     SC3  414   9.537   9.484   8.079
   64DA     SC4  415   9.693   9.260   8.200
   65DT     BB1  416  10.246   9.189   8.625
   65DT     BB2  417  10.152   9.532   8.622
   65DT     BB3  418  10.033   9.634   8.752
   65DT     SC1  419   9.844   9.470   8.674
   65DT     SC2  420   9.662   9.603   8.673
   65DT     SC3  421   9.653   9.284   8.634
   66DG     BB1  422  10.326   9.794   8.842
   66DG     BB2  423  10.078  10.050   8.887
   66DG     BB3  424   9.975  10.155   9.008
   66DG     SC1  425   9.852   9.935   9.141
   66DG     SC2  426   9.636  10.014   9.331
   66DG     SC3  427   9.749   9.763   9.421
   66DG     SC4  428   9.923   9.794   9.183
   67DA     BB1  429  10.252  10.407   8.977
   67DA     BB2  430   9.990  10.656   9.006
   67DA     BB3  431   9.872  10.808   9.063
   67DA     SC1  432   9.646  10.700   9.107
   67DA     SC2  433   9.471  10.851   9.143
   67DA     SC3  434   9.385  10.682   9.326
   67DA     SC4  435   9.631  10.566   9.200
   68DG     BB1  436  10.133  10.894   9.309
   68DG     BB2  437   9.925  10.682   9.502
   68DG     BB3  438   9.824  10.557   9.625
   68DG     SC1  439   9.906  10.314   9.567
   68DG     SC2  440   9.754  10.106   9.716
   68DG     SC3  441  10.020  10.003   9.666
   68DG     SC4  442  10.057  10.265   9.529
   69DT     BB1  443   9.729  10.819   9.821
   69DT     BB2  444   9.651  10.555  10.021
   69DT     BB3  445   9.685  10.412  10.156
   69DT     SC1  446   9.894  10.322   9.991
   69DT     SC2  447   9.887  10.109  10.063
   69DT     SC3  448  10.142  10.241   9.918
   70DA     BB1  449   9.478  10.497  10.425
   70DA     BB2  450   9.525  10.225  10.566
   70DA     BB3  451   9.661  10.097  10.648
   70DA     SC1  452   9.901  10.129  10.510
   70DA     SC2  453  10.051   9.951  10.537
   70DA     SC3  454  10.226  10.105  10.417
   70DA     SC4  455   9.973  10.262  10.449
   71DT     BB1  456   9.560  10.061  10.978
   71DT     BB2  457   9.760   9.773  10.896
   71DT     BB3  458   9.942   9.714  10.970
   71DT     SC1  459  10.028   9.947  10.885
   71DT     SC2  460  10.243   9.891  10.849
   71DT     SC3  461  10.135  10.193  10.851
   72DG     BB1  462   9.816   9.440  11.116
   72DG     BB2  463  10.158   9.359  11.219
   72DG     BB3  464  10.297   9.400  11.344
   72DG     SC1  465  10.367   9.650  11.196
   72DG     SC2  466  10.612   9.722  11.046
   72DG     SC3  467  10.467   9.966  11.105
   72DG     SC4  468  10.275   9.780  11.235
   73DC     BB1  469  10.402   9.105  11.405
   73DC     BB2  470  10.717   9.239  11.261
   73DC     BB3  471  10.865   9.347  11.354
   73DC     SC1  472  10.721   9.550  11.360
   73DC     SC2  473  10.844   9.726  11.287
   73DC     SC3  474  10.616   9.779  11.441
   74DA     BB1  475  11.045   9.070  11.434
   74DA     BB2  476  11.313   9.278  11.342
   74DA     BB3  477  11.424   9.417  11.440
   74DA     SC1  478  11.231   9.606  11.489
   74DA     SC2  479  11.233   9.837  11.449
   74DA     SC3  480  11.044   9.851  11.632
   74DA     SC4  481  11.127   9.565  11.608
  18.00000  18.00000  18.00000
