generated by VMD, t= 0.000000
518
    1DT     BB2    1   9.464  10.370  10.265
    1DT     BB3    2   9.514  10.410  10.055
    1DT     SC1    3   9.544  10.690  10.115
    1DT     SC2    4   9.354  10.780  10.074
    1DT     SC3    5   9.624  10.930  10.135
    2DA     BB1    6   9.444  10.060   9.925
    2DA     BB2    7   9.764  10.000   9.835
    2DA     BB3    8   9.904   9.880   9.895
    2DA     SC1    9  10.024  10.050  10.085
    2DA     SC2   10  10.194  10.200  10.065
    2DA     SC3   11  10.224  10.190  10.325
    2DA     SC4   12  10.004  10.010  10.245
    3DT     BB1   13   9.944   9.650   9.655
    3DT     BB2   14  10.304   9.670   9.715
    3DT     BB3   15  10.324   9.510   9.825
    3DT     SC1   16  10.244   9.620  10.035
    3DT     SC2   17  10.374   9.530  10.205
    3DT     SC3   18  10.074   9.670  10.235
    4DC     BB1   19  10.354   9.290   9.545
    4DC     BB2   20  10.624   9.110   9.435
    4DC     BB3   21  10.574   8.990   9.295
    4DC     SC1   22  10.604   8.780   9.475
    4DC     SC2   23  10.654   8.600   9.355
    4DC     SC3   24  10.554   8.560   9.625
    5DC     BB1   25  10.524   9.270   9.085
    5DC     BB2   26  10.724   9.230   8.795
    5DC     BB3   27  10.604   9.210   8.635
    5DC     SC1   28  10.554   8.950   8.685
    5DC     SC2   29  10.624   8.850   8.495
    5DC     SC3   30  10.484   8.700   8.695
    6DA     BB1   31  10.624   9.500   8.455
    6DA     BB2   32  10.354   9.610   8.245
    6DA     BB3   33  10.174   9.530   8.265
    6DA     SC1   34  10.214   9.370   8.005
    6DA     SC2   35  10.174   9.460   7.805
    6DA     SC3   36  10.194   9.200   7.725
    6DA     SC4   37  10.254   9.220   8.005
    7DA     BB1   38   9.954   9.760   8.415
    7DA     BB2   39   9.664   9.770   8.195
    7DA     BB3   40   9.534   9.650   8.285
    7DA     SC1   41   9.674   9.400   8.195
    7DA     SC2   42   9.624   9.270   8.015
    7DA     SC3   43   9.654   9.080   8.195
    7DA     SC4   44   9.784   9.320   8.265
    8DT     BB1   45   9.404   9.830   8.545
    8DT     BB2   46   9.704  10.010   8.555
    8DT     BB3   47   9.654  10.190   8.635
    8DT     SC1   48   9.584  10.310   8.425
    8DT     SC2   49   9.694  10.500   8.405
    8DT     SC3   50   9.414  10.430   8.255
    9DC     BB1   51   9.804  10.150   8.955
    9DC     BB2   52  10.034  10.410   8.935
    9DC     BB3   53   9.924  10.560   9.015
    9DC     SC1   54   9.734  10.560   8.815
    9DC     SC2   55   9.744  10.730   8.675
    9DC     SC3   56   9.494  10.590   8.675
   10DG     BB1   57  10.044  10.570   9.335
   10DG     BB2   58  10.044  10.930   9.385
   10DG     BB3   59   9.884  10.960   9.515
   10DG     SC1   60   9.704  10.940   9.265
   10DG     SC2   61   9.714  11.110   9.025
   10DG     SC3   62   9.564  10.860   8.975
   10DG     SC4   63   9.604  10.810   9.255
   11DA     BB1   64  10.054  10.930   9.825
   11DA     BB2   65   9.964  11.290   9.835
   11DA     BB3   66   9.824  11.340   9.954
   11DA     SC1   67   9.634  11.220   9.794
   11DA     SC2   68   9.524  11.300   9.614
   11DA     SC3   69   9.454  11.060   9.544
   11DA     SC4   70   9.594  11.060   9.804
   12DC     BB1   71   9.974  11.400  10.265
   12DC     BB2   72   9.754  11.200  10.465
   12DC     BB3   73   9.834  11.070  10.595
   12DC     SC1   74   9.844  10.890  10.385
   12DC     SC2   75   9.764  10.690  10.455
   12DC     SC3   76   9.894  10.690  10.205
   13DA     BB1   77   9.804  11.220  10.915
   13DA     BB2   78   9.544  11.090  11.104
   13DA     BB3   79   9.614  10.990  11.264
   13DA     SC1   80   9.644  10.720  11.135
   13DA     SC2   81   9.524  10.530  11.165
   13DA     SC3   82   9.724  10.400  11.065
   13DA     SC4   83   9.774  10.680  11.045
   14DA     BB1   84   9.714  11.230  11.494
   14DA     BB2   85   9.984  11.170  11.725
   14DA     BB3   86   9.854  11.140  11.865
   14DA     SC1   87   9.654  11.320  11.754
   14DA     SC2   88   9.554  11.510  11.844
   14DA     SC3   89   9.354  11.470  11.664
   14DA     SC4   90   9.584  11.310  11.604
   15DT     BB1   91  10.053  10.890  12.035
   15DT     BB2   92  10.274  10.890  11.755
   15DT     BB3   93  10.454  10.960  11.795
   15DT     SC1   94  10.384  11.200  11.695
   15DT     SC2   95  10.534  11.260  11.555
   15DT     SC3   96  10.344  11.460  11.725
   16DT     BB1   97  10.614  10.670  11.915
   16DT     BB2   98  10.454  10.450  11.685
   16DT     BB3   99  10.564  10.410  11.525
   16DT     SC1  100  10.544  10.650  11.445
   16DT     SC2  101  10.484  10.660  11.235
   16DT     SC3  102  10.604  10.910  11.395
   17DC     BB1  103  10.704  10.100  11.555
   17DC     BB2  104  10.504  10.130  11.255
   17DC     BB3  105  10.624  10.170  11.105
   17DC     SC1  106  10.734  10.390  11.185
   17DC     SC2  107  10.714  10.530  11.015
   17DC     SC3  108  10.834  10.630  11.245
   18DA     BB1  109  10.564   9.880  10.895
   18DA     BB2  110  10.264   9.940  10.725
   18DA     BB3  111  10.194   9.780  10.605
   18DA     SC1  112  10.364   9.830  10.375
   18DA     SC2  113  10.324   9.900  10.155
   18DA     SC3  114  10.574   9.820  10.115
   18DA     SC4  115  10.514   9.800  10.405
   19DG     BB1  116   9.884   9.740  10.715
   19DG     BB2  117   9.874  10.100  10.695
   19DG     BB3  118   9.744  10.180  10.565
   19DG     SC1  119   9.904  10.360  10.385
   19DG     SC2  120  10.124  10.550  10.475
   19DG     SC3  121  10.184  10.490  10.185
   19DG     SC4  122   9.924  10.350  10.225
   20DT     BB1  123   9.474  10.120  10.765
   20DT     BB2  124   9.244  10.400  10.824
   20DT     BB3  125   9.264  10.530  10.694
   20DT     SC1  126   9.524  10.560  10.755
   20DT     SC2  127   9.554  10.760  10.775
   20DT     SC3  128   9.784  10.540  10.735
   21DC     BB1  129   8.984  10.530  10.474
   21DC     BB2  130   8.874  10.870  10.394
   21DC     BB3  131   8.964  10.920  10.224
   21DC     SC1  132   9.204  10.880  10.374
   21DC     SC2  133   9.314  11.070  10.344
   21DC     SC3  134   9.464  10.840  10.414
   22DC     BB1  135   8.714  10.900   9.954
   22DC     BB2  136   8.854  10.990   9.644
   22DC     BB3  137   9.024  10.880   9.614
   22DC     SC1  138   9.164  11.020   9.814
   22DC     SC2  139   9.224  11.220   9.744
   22DC     SC3  140   9.314  11.130   9.994
   23DA     BB1  141   8.944  10.670   9.354
   23DA     BB2  142   8.954  10.930   9.094
   23DA     BB3  143   9.084  10.840   8.984
   23DA     SC1  144   9.274  11.020   9.104
   23DA     SC2  145   9.354  11.210   9.024
   23DA     SC3  146   9.464  11.230   9.264
   23DA     SC4  147   9.334  10.970   9.254
   24DG     BB1  148   8.904  10.580   8.874
   24DG     BB2  149   8.634  10.670   9.114
   24DG     BB3  150   8.474  10.620   9.014
   24DG     SC1  151   8.434  10.910   8.904
   24DG     SC2  152   8.254  11.110   8.994
   24DG     SC3  153   8.424  11.210   8.784
   24DG     SC4  154   8.544  10.950   8.784
   25DT     BB1  155   8.434  10.350   9.194
   25DT     BB2  156   8.274  10.070   9.044
   25DT     BB3  157   8.164  10.030   9.174
   25DT     SC1  158   8.354   9.980   9.314
   25DT     SC2  159   8.344   9.770   9.414
   25DT     SC3  160   8.574   9.980   9.474
   26DG     BB1  161   7.914  10.250   9.014
   26DG     BB2  162   7.574  10.150   8.924
   26DG     BB3  163   7.574   9.960   8.884
   26DG     SC1  164   7.764  10.000   8.674
   26DG     SC2  165   7.734   9.990   8.384
   26DG     SC3  166   8.014  10.090   8.454
   26DG     SC4  167   7.924  10.020   8.714
   27DT     BB1  168   7.454   9.750   9.134
   27DT     BB2  169   7.534   9.440   8.984
   27DT     BB3  170   7.544   9.310   9.114
   27DT     SC1  171   7.824   9.420   9.174
   27DT     SC2  172   7.964   9.270   9.164
   27DT     SC3  173   8.024   9.570   9.264
   28DA     BB1  174   7.374   9.040   9.084
   28DA     BB2  175   7.394   9.060   8.744
   28DA     BB3  176   7.514   8.930   8.654
   28DA     SC1  177   7.764   9.100   8.744
   28DA     SC2  178   7.864   9.260   8.634
   28DA     SC3  179   8.014   9.280   8.844
   28DA     SC4  180   7.824   9.080   8.884
   29DC     BB1  181   7.294   8.820   8.414
   29DC     BB2  182   7.584   8.700   8.234
   29DC     BB3  183   7.654   8.530   8.324
   29DC     SC1  184   7.804   8.650   8.504
   29DC     SC2  185   8.024   8.630   8.464
   29DC     SC3  186   7.934   8.690   8.724
   30DG     BB1  187   7.524   8.340   8.074
   30DG     BB2  188   7.854   8.170   8.005
   30DG     BB3  189   7.774   7.990   8.015
   30DG     SC1  190   7.724   8.040   8.284
   30DG     SC2  191   7.874   7.940   8.515
   30DG     SC3  192   7.594   8.010   8.594
   30DG     SC4  193   7.574   8.100   8.324
   31DT     BB1  194   7.794   7.840   7.705
   31DT     BB2  195   8.114   7.760   7.635
   31DT     BB3  196   8.234   7.820   7.795
   31DT     SC1  197   8.174   8.050   7.665
   31DT     SC2  198   8.364   8.150   7.645
   31DT     SC3  199   8.084   8.300   7.615
   32DA     BB1  200   8.314   7.530   7.985
   32DA     BB2  201   8.194   7.440   8.325
   32DA     BB3  202   8.054   7.320   8.335
   32DA     SC1  203   7.864   7.550   8.385
   32DA     SC2  204   7.744   7.560   8.575
   32DA     SC3  205   7.614   7.730   8.425
   32DA     SC4  206   7.854   7.660   8.285
   33DC     BB1  207   8.214   7.060   8.425
   33DC     BB2  208   8.464   7.310   8.525
   33DC     BB3  209   8.434   7.360   8.715
   33DC     SC1  210   8.224   7.510   8.655
   33DC     SC2  211   8.284   7.690   8.765
   33DC     SC3  212   8.014   7.660   8.685
   34DT     BB1  213   8.654   7.150   8.895
   34DT     BB2  214   8.504   7.300   9.195
   34DT     BB3  215   8.324   7.200   9.245
   34DT     SC1  216   8.174   7.330   9.055
   34DT     SC2  217   8.014   7.450   9.145
   34DT     SC3  218   8.014   7.340   8.845
   35DT     BB1  219   8.384   7.170   9.595
   35DT     BB2  220   8.064   7.320   9.645
   35DT     BB3  221   7.894   7.220   9.675
   35DT     SC1  222   7.884   7.220   9.405
   35DT     SC2  223   7.704   7.320   9.345
   35DT     SC3  224   7.874   7.130   9.155
   36DA     BB1  225   7.844   7.210  10.045
   36DA     BB2  226   7.584   7.360   9.875
   36DA     BB3  227   7.394   7.290   9.835
   36DA     SC1  228   7.474   7.190   9.555
   36DA     SC2  229   7.374   7.270   9.375
   36DA     SC3  230   7.494   7.060   9.265
   36DA     SC4  231   7.544   7.040   9.535
   37DA     BB1  232   7.154   7.460  10.034
   37DA     BB2  233   7.024   7.480   9.704
   37DA     BB3  234   6.874   7.330   9.704
   37DA     SC1  235   7.054   7.160   9.494
   37DA     SC2  236   7.064   7.140   9.264
   37DA     SC3  237   7.214   6.930   9.315
   37DA     SC4  238   7.144   7.050   9.575
   38DT     BB1  239   6.604   7.480   9.714
   38DT     BB2  240   6.634   7.410   9.374
   38DT     BB3  241   6.504   7.250   9.364
   38DT     SC1  242   6.714   7.090   9.444
   38DT     SC2  243   6.744   6.960   9.284
   38DT     SC3  244   6.844   6.920   9.574
   39DC     BB1  245   6.304   7.390   9.104
   39DC     BB2  246   6.274   7.100   8.934
   39DC     BB3  247   6.374   6.950   9.014
   39DC     SC1  248   6.594   7.110   8.974
   39DC     SC2  249   6.744   6.960   8.904
   39DC     SC3  250   6.844   7.210   9.004
   40DA     BB1  251   6.144   6.700   9.124
   40DA     BB2  252   6.334   6.480   9.314
   40DA     BB3  253   6.264   6.460   9.494
   40DA     SC1  254   6.314   6.730   9.574
   40DA     SC2  255   6.484   6.860   9.564
   40DA     SC3  256   6.364   7.040   9.724
   40DA     SC4  257   6.204   6.800   9.674
   41DT     BB1  258   6.114   6.170   9.424
   41DT     BB2  259   6.274   5.860   9.404
   41DT     BB3  260   6.334   5.830   9.214
   41DT     SC1  261   6.124   5.680   9.144
   41DT     SC2  262   6.194   5.500   9.055
   41DT     SC3  263   5.904   5.620   9.004
   42DT     BB1  264   6.624   5.970   9.285
   42DT     BB2  265   6.584   6.260   9.084
   42DT     BB3  266   6.784   6.310   9.045
   42DT     SC1  267   6.714   6.480   9.234
   42DT     SC2  268   6.694   6.670   9.114
   42DT     SC3  269   6.734   6.650   9.434
   43DT     BB1  270   6.864   6.230   8.725
   43DT     BB2  271   6.874   6.570   8.705
   43DT     BB3  272   7.064   6.620   8.715
   43DT     SC1  273   7.024   6.670   8.975
   43DT     SC2  274   7.064   6.860   9.015
   43DT     SC3  275   7.024   6.650   9.245
   44DT     BB1  276   7.134   6.750   8.405
   44DT     BB2  277   7.064   7.060   8.554
   44DT     BB3  278   7.244   7.130   8.575
   44DT     SC1  279   7.294   7.000   8.805
   44DT     SC2  280   7.294   7.150   8.955
   44DT     SC3  281   7.414   6.850   8.985
   45DA     BB1  282   7.184   7.390   8.354
   45DA     BB2  283   7.094   7.550   8.674
   45DA     BB3  284   7.244   7.680   8.684
   45DA     SC1  285   7.404   7.500   8.834
   45DA     SC2  286   7.474   7.460   9.045
   45DA     SC3  287   7.594   7.230   8.965
   45DA     SC4  288   7.504   7.410   8.745
   46DG     BB1  289   7.104   7.990   8.634
   46DG     BB2  290   7.224   7.920   8.944
   46DG     BB3  291   7.394   8.010   8.994
   46DG     SC1  292   7.604   7.820   8.964
   46DG     SC2  293   7.734   7.650   9.165
   46DG     SC3  294   7.774   7.530   8.905
   46DG     SC4  295   7.664   7.780   8.815
   47DG     BB1  296   7.334   8.260   9.234
   47DG     BB2  297   7.654   8.110   9.374
   47DG     BB3  298   7.794   8.230   9.254
   47DG     SC1  299   7.824   8.030   9.035
   47DG     SC2  300   8.004   7.800   9.035
   47DG     SC3  301   8.034   7.990   8.795
   47DG     SC4  302   7.784   8.090   8.885
   48DA     BB1  303   7.994   8.450   9.394
   48DA     BB2  304   8.234   8.340   9.135
   48DA     BB3  305   8.274   8.450   8.985
   48DA     SC1  306   8.074   8.360   8.805
   48DA     SC2  307   8.104   8.260   8.605
   48DA     SC3  308   7.854   8.270   8.574
   48DA     SC4  309   7.904   8.360   8.844
   49DG     BB1  310   8.594   8.500   9.125
   49DG     BB2  311   8.684   8.850   9.115
   49DG     BB3  312   8.784   8.860   8.945
   49DG     SC1  313   8.884   8.600   9.005
   49DG     SC2  314   9.034   8.520   9.245
   49DG     SC3  315   8.834   8.320   9.205
   49DG     SC4  316   8.814   8.460   8.955
   50DG     BB1  317   8.704   9.180   8.765
   50DG     BB2  318   8.524   9.210   8.455
   50DG     BB3  319   8.364   9.320   8.504
   50DG     SC1  320   8.154   9.080   8.474
   50DG     SC2  321   8.144   8.890   8.264
   50DG     SC3  322   7.914   8.940   8.434
   50DG     SC4  323   8.114   9.040   8.614
   51DT     BB1  324   8.374   9.650   8.414
   51DT     BB2  325   8.374   9.760   8.754
   51DT     BB3  326   8.264   9.630   8.874
   51DT     SC1  327   8.034   9.700   8.764
   51DT     SC2  328   7.904   9.670   8.944
   51DT     SC3  329   7.804   9.640   8.634
   52DG     BB1  330   8.534   9.510   9.024
   52DG     BB2  331   8.394   9.360   9.344
   52DG     BB3  332   8.434   9.180   9.374
   52DG     SC1  333   8.264   9.050   9.184
   52DG     SC2  334   8.004   8.900   9.184
   52DG     SC3  335   8.114   8.900   8.924
   52DG     SC4  336   8.294   9.080   9.044
   53DG     BB1  337   8.684   9.180   9.625
   53DG     BB2  338   8.884   8.880   9.535
   53DG     BB3  339   9.074   8.880   9.585
   53DG     SC1  340   9.134   8.980   9.315
   53DG     SC2  341   9.194   8.810   9.095
   53DG     SC3  342   9.124   9.090   9.005
   53DG     SC4  343   9.124   9.130   9.275
   54DA     BB1  344   9.074   8.720   9.895
   54DA     BB2  345   9.344   8.510   9.775
   54DA     BB3  346   9.304   8.500   9.585
   54DA     SC1  347   9.064   8.330   9.585
   54DA     SC2  348   9.044   8.100   9.605
   54DA     SC3  349   8.804   8.140   9.505
   54DA     SC4  350   8.934   8.400   9.545
   55DA     BB1  351   9.594   8.610   9.425
   55DA     BB2  352   9.594   8.300   9.235
   55DA     BB3  353   9.514   8.320   9.065
   55DA     SC1  354   9.264   8.160   9.155
   55DA     SC2  355   9.234   7.950   9.075
   55DA     SC3  356   8.994   7.990   9.185
   55DA     SC4  357   9.174   8.210   9.265
   56DG     BB1  358   9.664   8.630   8.955
   56DG     BB2  359   9.694   8.820   9.235
   56DG     BB3  360   9.544   8.800   9.365
   56DG     SC1  361   9.454   9.030   9.275
   56DG     SC2  362   9.374   9.290   9.395
   56DG     SC3  363   9.394   9.320   9.105
   56DG     SC4  364   9.454   9.050   9.115
   57DG     BB1  365   9.564   8.470   9.435
   57DG     BB2  366   9.564   8.320   9.085
   57DG     BB3  367   9.564   8.500   8.975
   57DG     SC1  368   9.304   8.450   8.835
   57DG     SC2  369   9.274   8.290   8.585
   57DG     SC3  370   9.024   8.420   8.675
   57DG     SC4  371   9.184   8.510   8.905
   58DG     BB1  372   9.874   8.580   8.905
   58DG     BB2  373   9.944   8.560   8.545
   58DG     BB3  374  10.154   8.560   8.515
   58DG     SC1  375  10.214   8.820   8.385
   58DG     SC2  376  10.244   8.880   8.105
   58DG     SC3  377  10.414   9.050   8.275
   58DG     SC4  378  10.254   8.940   8.475
   59DG     BB1  379  10.164   8.220   8.565
   59DG     BB2  380  10.474   8.240   8.725
   59DG     BB3  381  10.474   8.180   8.915
   59DG     SC1  382  10.584   8.440   9.015
   59DG     SC2  383  10.854   8.500   9.135
   59DG     SC3  384  10.724   8.720   8.985
   59DG     SC4  385  10.494   8.570   9.025
   60DC     BB1  386  10.444   7.830   8.955
   60DC     BB2  387  10.164   7.620   9.035
   60DC     BB3  388  10.224   7.510   9.185
   60DC     SC1  389  10.314   7.330   9.025
   60DC     SC2  390  10.264   7.160   9.155
   60DC     SC3  391  10.434   7.110   8.925
   61DT     BB1  392  10.024   7.690   9.425
   61DT     BB2  393   9.684   7.640   9.325
   61DT     BB3  394   9.624   7.780   9.225
   61DT     SC1  395   9.494   7.910   9.425
   61DT     SC2  396   9.274   7.880   9.395
   61DT     SC3  397   9.404   8.070   9.625
   62DC     BB1  398   9.674   7.700   8.895
   62DC     BB2  399   9.374   7.690   8.705
   62DC     BB3  400   9.364   7.850   8.585
   62DC     SC1  401   9.224   8.010   8.755
   62DC     SC2  402   9.034   8.020   8.645
   62DC     SC3  403   9.064   8.150   8.895
   63DG     BB1  404   9.544   7.790   8.325
   63DG     BB2  405   9.784   8.030   8.195
   63DG     BB3  406   9.694   8.110   8.055
   63DG     SC1  407   9.794   7.950   7.835
   63DG     SC2  408   9.954   8.060   7.615
   63DG     SC3  409  10.004   7.780   7.645
   63DG     SC4  410   9.794   7.780   7.845
   64DA     BB1  411   9.594   8.420   8.195
   64DA     BB2  412   9.584   8.700   7.975
   64DA     BB3  413   9.744   8.690   7.875
   64DA     SC1  414   9.894   8.860   8.055
   64DA     SC2  415   9.944   9.080   8.015
   64DA     SC3  416  10.004   9.100   8.275
   64DA     SC4  417   9.884   8.840   8.215
   65DA     BB1  418   9.664   8.620   7.555
   65DA     BB2  419   9.934   8.450   7.355
   65DA     BB3  420   9.844   8.360   7.205
   65DA     SC1  421   9.774   8.110   7.345
   65DA     SC2  422   9.884   7.900   7.335
   65DA     SC3  423   9.704   7.820   7.505
   65DA     SC4  424   9.644   8.080   7.435
   66DG     BB1  425   9.864   8.570   6.935
   66DG     BB2  426  10.194   8.570   6.855
   66DG     BB3  427  10.304   8.740   6.815
   66DG     SC1  428  10.234   8.690   6.515
   66DG     SC2  429  10.384   8.530   6.315
   66DG     SC3  430  10.334   8.800   6.235
   66DG     SC4  431  10.144   8.810   6.445
   67DT     BB1  432  10.474   8.780   7.135
   67DT     BB2  433  10.574   9.090   6.995
   67DT     BB3  434  10.434   9.190   6.945
   67DT     SC1  435  10.484   9.120   6.715
   67DT     SC2  436  10.444   9.290   6.595
   67DT     SC3  437  10.404   8.990   6.485
   68DT     BB1  438  10.324   9.290   7.245
   68DT     BB2  439  10.224   9.630   7.205
   68DT     BB3  440  10.034   9.620   7.155
   68DT     SC1  441  10.134   9.640   6.915
   68DT     SC2  442  10.034   9.790   6.795
   68DT     SC3  443  10.194   9.540   6.675
   69DA     BB1  444   9.854   9.730   7.445
   69DA     BB2  445   9.634   9.990   7.365
   69DA     BB3  446   9.514   9.920   7.235
   69DA     SC1  447   9.664   9.990   6.975
   69DA     SC2  448   9.734  10.190   6.895
   69DA     SC3  449   9.834  10.060   6.695
   69DA     SC4  450   9.724   9.880   6.885
   70DT     BB1  451   9.344   9.740   7.465
   70DT     BB2  452   9.504   9.750   7.775
   70DT     BB3  453   9.684   9.740   7.725
   70DT     SC1  454   9.724   9.500   7.775
   70DT     SC2  455   9.854   9.490   7.945
   70DT     SC3  456   9.804   9.240   7.745
   71DC     BB1  457   9.724  10.010   7.525
   71DC     BB2  458   9.844  10.350   7.615
   71DC     BB3  459  10.004  10.350   7.725
   71DC     SC1  460   9.824  10.320   7.905
   71DC     SC2  461   9.864  10.470   8.055
   71DC     SC3  462   9.664  10.280   8.115
   72DT     BB1  463  10.244  10.380   7.525
   72DT     BB2  464  10.294  10.040   7.355
   72DT     BB3  465  10.394  10.070   7.185
   72DT     SC1  466  10.144  10.150   7.155
   72DT     SC2  467  10.034  10.040   7.005
   72DT     SC3  468   9.954  10.340   7.125
   73DC     BB1  469  10.694   9.860   7.175
   73DC     BB2  470  10.584   9.680   6.885
   73DC     BB3  471  10.624   9.780   6.715
   73DC     SC1  472  10.374   9.880   6.715
   73DC     SC2  473  10.284   9.870   6.515
   73DC     SC3  474  10.174  10.070   6.685
   74DA     BB1  475  10.924   9.660   6.605
   74DA     BB2  476  10.894   9.300   6.705
   74DA     BB3  477  10.994   9.190   6.585
   74DA     SC1  478  10.804   9.000   6.505
   74DA     SC2  479  10.744   8.800   6.595
   74DA     SC3  480  10.634   8.730   6.355
   74DA     SC4  481  10.734   9.000   6.345
    1MG     MG   482   8.299   3.599  15.552
    2MG     MG   483   9.822  15.466  17.805
    3MG     MG   484  13.052   9.642   9.315
    4MG     MG   485   8.090  16.740   4.443
    5MG     MG   486   8.554   3.014   4.898
    6MG     MG   487  11.704  12.917   4.105
    7MG     MG   488   6.264  13.117   0.339
    8MG     MG   489   7.174  10.000   0.550
    9MG     MG   490   2.081   9.162  11.970
   10MG     MG   491   8.733   9.570  15.968
   11MG     MG   492   7.004   6.175  13.497
   12MG     MG   493  14.190   5.069  16.860
   13MG     MG   494  14.920   4.968   7.021
   14MG     MG   495  15.069   1.826  10.976
   15MG     MG   496  10.153   2.395   1.595
   16MG     MG   497   8.846   7.569   4.807
   17MG     MG   498   8.168  15.224  15.569
   18MG     MG   499  10.215   0.458   3.872
   19MG     MG   500  10.937   3.066   0.569
   20MG     MG   501  12.674  17.985   4.354
   21MG     MG   502  15.536   6.526   5.472
   22MG     MG   503  13.633  14.600  15.336
   23MG     MG   504  14.644   5.441   4.138
   24MG     MG   505   2.759   5.848  16.378
   25MG     MG   506  10.927  16.871  11.063
   26MG     MG   507   4.961   9.172  16.198
   27MG     MG   508  14.021  12.055   7.901
   28MG     MG   509  14.638  11.277   8.867
   29MG     MG   510   4.674   7.837   2.300
   30MG     MG   511   6.681   1.885  13.968
   31MG     MG   512   5.648  16.267  15.826
   32MG     MG   513  11.680   3.473   0.051
   33MG     MG   514   7.736  12.365  14.897
   34MG     MG   515  15.998   2.825   2.130
   35MG     MG   516   1.057  11.152   0.434
   36MG     MG   517   5.155   3.228   6.394
   37MG     MG   518   1.703   3.237  12.612
  18.00000  18.00000  18.00000   0.00000   0.00000   0.00000   0.00000   0.00000   0.00000
